Non-intersecting ant raft

13990 atoms
1 atom types
2 bond types
-0.161 0.161 xlo xhi
-0.077 0.077 ylo yhi
-0.0154 0.0154 zlo zhi

Atoms

1 1 1 0.001 304000 0.145861 -0.0542236 0
2 2 1 0.001 304000 0.0594238 -0.023468 0
3 3 1 0.001 304000 -0.0482342 -0.0335131 0
4 4 1 0.001 304000 0.0817071 -0.0538222 0
5 5 1 0.001 304000 0.143542 -0.0648743 0
6 6 1 0.001 304000 -0.0381654 -0.0560952 0
7 7 1 0.001 304000 0.00704443 0.034077 0
8 8 1 0.001 304000 0.131774 -0.026603 0
9 9 1 0.001 304000 -0.059084 0.0377708 0
10 10 1 0.001 304000 0.0844934 0.000178081 0
11 11 1 0.001 304000 -0.0552705 -0.0408385 0
12 12 1 0.001 304000 0.144826 -0.0628265 0
13 13 1 0.001 304000 -0.143391 0.0308313 0
14 14 1 0.001 304000 -0.00712594 0.0594465 0
15 15 1 0.001 304000 -0.081311 0.0527957 0
16 16 1 0.001 304000 0.010043 0.00327273 0
17 17 1 0.001 304000 -0.0855626 -0.0588271 0
18 18 1 0.001 304000 0.138174 -0.0653931 0
19 19 1 0.001 304000 -0.12557 0.0677342 0
20 20 1 0.001 304000 0.132273 -0.0148767 0
21 21 1 0.001 304000 0.0301481 0.0652983 0
22 22 1 0.001 304000 0.082413 -0.00240799 0
23 23 1 0.001 304000 0.115748 -0.0668335 0
24 24 1 0.001 304000 -0.0556567 -0.0649034 0
25 25 1 0.001 304000 0.140211 0.0535172 0
26 26 1 0.001 304000 0.110598 -0.0079785 0
27 27 1 0.001 304000 -0.0154584 -0.0628536 0
28 28 1 0.001 304000 -0.138928 0.0662847 0
29 29 1 0.001 304000 0.109465 -0.0703882 0
30 30 1 0.001 304000 0.141668 -0.00521257 0
31 31 1 0.001 304000 -0.110213 -0.0544175 0
32 32 1 0.001 304000 0.152523 -0.0547701 0
33 33 1 0.001 304000 0.129313 0.0645464 0
34 34 1 0.001 304000 -0.0206818 -0.039266 0
35 35 1 0.001 304000 0.124827 0.0185717 0
36 36 1 0.001 304000 0.0688035 -0.0733232 0
37 37 1 0.001 304000 -0.0739658 -0.0291686 0
38 38 1 0.001 304000 -0.0786491 -0.0692557 0
39 39 1 0.001 304000 -0.0257808 -0.0532881 0
40 40 1 0.001 304000 -0.121005 -0.0297344 0
41 41 1 0.001 304000 -0.142362 0.0271938 0
42 42 1 0.001 304000 -0.0571922 0.027904 0
43 43 1 0.001 304000 -0.0517079 0.00160575 0
44 44 1 0.001 304000 -0.131123 -0.0388584 0
45 45 1 0.001 304000 -0.0486037 0.00469343 0
46 46 1 0.001 304000 -0.0999154 0.030848 0
47 47 1 0.001 304000 0.0125269 -0.010361 0
48 48 1 0.001 304000 -0.00904963 0.0199786 0
49 49 1 0.001 304000 0.0950709 0.0667605 0
50 50 1 0.001 304000 0.0232194 -0.051223 0
51 51 1 0.001 304000 0.00567397 0.00606447 0
52 52 1 0.001 304000 -0.0292918 -0.059641 0
53 53 1 0.001 304000 -0.0538937 0.070855 0
54 54 1 0.001 304000 -0.0188281 0.00787877 0
55 55 1 0.001 304000 0.132923 -0.0529834 0
56 56 1 0.001 304000 -0.0932184 0.0129093 0
57 57 1 0.001 304000 -0.0966214 0.0317941 0
58 58 1 0.001 304000 -0.0859576 0.0690786 0
59 59 1 0.001 304000 0.0674581 -0.0120773 0
60 60 1 0.001 304000 0.0422566 0.0125182 0
61 61 1 0.001 304000 0.00357115 0.0350099 0
62 62 1 0.001 304000 0.0635923 0.0182653 0
63 63 1 0.001 304000 -0.0106774 -0.0414792 0
64 64 1 0.001 304000 0.115125 0.0442429 0
65 65 1 0.001 304000 -0.0231169 0.0704054 0
66 66 1 0.001 304000 0.125912 0.0698279 0
67 67 1 0.001 304000 0.0194004 -0.0585578 0
68 68 1 0.001 304000 0.0696068 0.0270961 0
69 69 1 0.001 304000 -0.0343602 0.00486471 0
70 70 1 0.001 304000 -0.100144 0.0274848 0
71 71 1 0.001 304000 -0.103779 -0.00900902 0
72 72 1 0.001 304000 0.048208 0.000370051 0
73 73 1 0.001 304000 0.042475 -0.0585409 0
74 74 1 0.001 304000 0.0796507 0.0543531 0
75 75 1 0.001 304000 0.0309636 0.0172887 0
76 76 1 0.001 304000 -0.136735 -0.0364858 0
77 77 1 0.001 304000 0.000586599 -0.0255194 0
78 78 1 0.001 304000 0.0610093 -0.0634895 0
79 79 1 0.001 304000 -0.111171 -0.0112143 0
80 80 1 0.001 304000 0.0762136 -0.0238003 0
81 81 1 0.001 304000 0.0107437 0.0547458 0
82 82 1 0.001 304000 0.145463 0.011784 0
83 83 1 0.001 304000 0.0818088 0.0259689 0
84 84 1 0.001 304000 0.0481126 0.0202618 0
85 85 1 0.001 304000 0.103618 -0.0760898 0
86 86 1 0.001 304000 -0.0352163 0.0308951 0
87 87 1 0.001 304000 0.100294 -0.0112474 0
88 88 1 0.001 304000 0.143134 0.0585108 0
89 89 1 0.001 304000 0.143635 -0.0543556 0
90 90 1 0.001 304000 0.0325517 -0.00121543 0
91 91 1 0.001 304000 -0.0843558 0.0567601 0
92 92 1 0.001 304000 0.0221855 -0.0316571 0
93 93 1 0.001 304000 0.0633051 -0.0279463 0
94 94 1 0.001 304000 0.0374069 0.0674222 0
95 95 1 0.001 304000 -0.0134319 -0.0311733 0
96 96 1 0.001 304000 -0.142686 -0.00453538 0
97 97 1 0.001 304000 0.0330215 0.0754857 0
98 98 1 0.001 304000 -0.115555 0.0164141 0
99 99 1 0.001 304000 0.0970898 0.00874735 0
100 100 1 0.001 304000 0.00592885 0.0328134 0
101 101 1 0.001 304000 0.0486923 -0.0719926 0
102 102 1 0.001 304000 0.0032669 -0.0235323 0
103 103 1 0.001 304000 -0.0679538 -0.0746359 0
104 104 1 0.001 304000 0.0655695 -0.0734479 0
105 105 1 0.001 304000 0.000332811 -0.0412104 0
106 106 1 0.001 304000 -0.0238404 -0.0582071 0
107 107 1 0.001 304000 -0.0980447 -0.0592073 0
108 108 1 0.001 304000 -0.0499561 0.0198065 0
109 109 1 0.001 304000 0.137554 0.0562735 0
110 110 1 0.001 304000 0.0434577 -0.0290625 0
111 111 1 0.001 304000 -0.0469895 -0.0530303 0
112 112 1 0.001 304000 0.14864 0.020344 0
113 113 1 0.001 304000 0.00379767 -0.0546516 0
114 114 1 0.001 304000 0.0637887 0.0268319 0
115 115 1 0.001 304000 0.0854743 0.0697562 0
116 116 1 0.001 304000 -0.026759 0.0317484 0
117 117 1 0.001 304000 -0.042255 0.0133706 0
118 118 1 0.001 304000 -0.1211 0.042952 0
119 119 1 0.001 304000 0.0392619 0.0125846 0
120 120 1 0.001 304000 0.0833024 0.00875484 0
121 121 1 0.001 304000 0.0570995 0.0169532 0
122 122 1 0.001 304000 0.103259 -0.0241868 0
123 123 1 0.001 304000 0.0379432 -0.00245012 0
124 124 1 0.001 304000 0.140937 -0.00302444 0
125 125 1 0.001 304000 0.0789934 -0.0090887 0
126 126 1 0.001 304000 0.0943687 -0.0530853 0
127 127 1 0.001 304000 0.0694007 0.0489914 0
128 128 1 0.001 304000 -0.0251791 -0.0593814 0
129 129 1 0.001 304000 -0.140585 0.0537417 0
130 130 1 0.001 304000 0.071577 0.0416115 0
131 131 1 0.001 304000 0.130616 0.0319558 0
132 132 1 0.001 304000 -0.147939 -0.0501978 0
133 133 1 0.001 304000 -0.150937 -0.0430765 0
134 134 1 0.001 304000 0.0604644 0.0243484 0
135 135 1 0.001 304000 0.0117465 -0.0753762 0
136 136 1 0.001 304000 -0.0517119 0.0728624 0
137 137 1 0.001 304000 -0.0187434 -0.0475709 0
138 138 1 0.001 304000 0.147713 0.0748843 0
139 139 1 0.001 304000 0.0564503 0.0732314 0
140 140 1 0.001 304000 0.107668 0.0598492 0
141 141 1 0.001 304000 0.147499 0.00561684 0
142 142 1 0.001 304000 0.0683478 -0.0700171 0
143 143 1 0.001 304000 0.0723506 -0.0311376 0
144 144 1 0.001 304000 -0.0170243 -0.0228706 0
145 145 1 0.001 304000 0.0123653 0.0421449 0
146 146 1 0.001 304000 0.0798599 -0.0519597 0
147 147 1 0.001 304000 0.1275 -0.00365042 0
148 148 1 0.001 304000 -0.114882 -0.00535728 0
149 149 1 0.001 304000 0.137586 0.0424561 0
150 150 1 0.001 304000 -0.0684467 0.0553683 0
151 151 1 0.001 304000 -0.0656323 -0.0585327 0
152 152 1 0.001 304000 -0.0267444 -0.0309891 0
153 153 1 0.001 304000 -0.135481 -0.060732 0
154 154 1 0.001 304000 -0.149107 -0.0696848 0
155 155 1 0.001 304000 0.0243031 0.00235532 0
156 156 1 0.001 304000 -0.0147724 -0.00101695 0
157 157 1 0.001 304000 0.0465991 -0.0263116 0
158 158 1 0.001 304000 0.142578 0.0346062 0
159 159 1 0.001 304000 0.0568133 -0.0446525 0
160 160 1 0.001 304000 -0.0685766 -0.0293768 0
161 161 1 0.001 304000 0.0562495 0.0554999 0
162 162 1 0.001 304000 0.0412324 0.0543645 0
163 163 1 0.001 304000 0.0460184 0.0469172 0
164 164 1 0.001 304000 -0.112323 -0.0703928 0
165 165 1 0.001 304000 -0.0845867 0.00870366 0
166 166 1 0.001 304000 0.101068 -0.0217193 0
167 167 1 0.001 304000 0.0243894 -0.0711133 0
168 168 1 0.001 304000 0.0150811 -0.00743065 0
169 169 1 0.001 304000 -0.0982434 -0.0543062 0
170 170 1 0.001 304000 -0.116303 0.0556109 0
171 171 1 0.001 304000 0.0416998 0.0489485 0
172 172 1 0.001 304000 -0.00879635 0.0376013 0
173 173 1 0.001 304000 0.0587868 0.0242065 0
174 174 1 0.001 304000 -0.0332 -0.0514938 0
175 175 1 0.001 304000 -0.00919407 0.0107482 0
176 176 1 0.001 304000 -0.0408402 0.0272408 0
177 177 1 0.001 304000 -0.0015757 0.0117757 0
178 178 1 0.001 304000 -0.137158 0.0556339 0
179 179 1 0.001 304000 -0.115337 -0.0561971 0
180 180 1 0.001 304000 -0.123662 -0.0284914 0
181 181 1 0.001 304000 -0.0246292 0.076882 0
182 182 1 0.001 304000 0.0212707 -0.0487119 0
183 183 1 0.001 304000 0.111402 0.0387535 0
184 184 1 0.001 304000 -0.137039 -0.018894 0
185 185 1 0.001 304000 0.120196 0.0454078 0
186 186 1 0.001 304000 0.00131423 0.0158319 0
187 187 1 0.001 304000 -0.0822753 -0.057476 0
188 188 1 0.001 304000 0.0590124 -0.000299268 0
189 189 1 0.001 304000 -0.0441166 0.0262466 0
190 190 1 0.001 304000 -0.0451656 0.0464757 0
191 191 1 0.001 304000 0.152293 0.0573184 0
192 192 1 0.001 304000 -0.112597 -0.0373414 0
193 193 1 0.001 304000 -0.078599 -0.0470039 0
194 194 1 0.001 304000 -0.046788 -0.0649189 0
195 195 1 0.001 304000 0.107971 0.047208 0
196 196 1 0.001 304000 -0.118409 0.0195482 0
197 197 1 0.001 304000 0.0879024 0.0230313 0
198 198 1 0.001 304000 0.0113675 -0.068417 0
199 199 1 0.001 304000 0.0911687 0.00254208 0
200 200 1 0.001 304000 -0.0828583 0.01792 0
201 201 1 0.001 304000 -0.0527785 0.0286998 0
202 202 1 0.001 304000 -0.10402 -0.0232472 0
203 203 1 0.001 304000 0.0592143 0.032057 0
204 204 1 0.001 304000 0.0268822 0.0754666 0
205 205 1 0.001 304000 -0.0512678 0.0218883 0
206 206 1 0.001 304000 -0.14 0.00210787 0
207 207 1 0.001 304000 -0.0614855 -0.0655042 0
208 208 1 0.001 304000 0.00450859 0.0593618 0
209 209 1 0.001 304000 0.107867 0.0749494 0
210 210 1 0.001 304000 0.0694403 0.0701701 0
211 211 1 0.001 304000 -0.0488052 -0.067909 0
212 212 1 0.001 304000 0.0566613 0.0025197 0
213 213 1 0.001 304000 -0.108936 -0.034079 0
214 214 1 0.001 304000 0.0823307 0.0503106 0
215 215 1 0.001 304000 0.12319 -0.0274409 0
216 216 1 0.001 304000 -0.108026 -0.0183399 0
217 217 1 0.001 304000 -0.0175281 0.0351347 0
218 218 1 0.001 304000 -0.0204028 0.0243294 0
219 219 1 0.001 304000 0.0675911 -0.050227 0
220 220 1 0.001 304000 -0.0267971 0.0387038 0
221 221 1 0.001 304000 0.0244432 -0.0152208 0
222 222 1 0.001 304000 -0.143848 -0.0699903 0
223 223 1 0.001 304000 0.000144192 -0.0187154 0
224 224 1 0.001 304000 0.0602867 0.0460124 0
225 225 1 0.001 304000 -0.116518 0.0606457 0
226 226 1 0.001 304000 0.144665 -0.0604696 0
227 227 1 0.001 304000 0.140372 0.0105938 0
228 228 1 0.001 304000 0.112019 0.0363212 0
229 229 1 0.001 304000 -0.0473752 -0.00362413 0
230 230 1 0.001 304000 0.127464 0.0416563 0
231 231 1 0.001 304000 -0.123094 -0.0232308 0
232 232 1 0.001 304000 -0.106008 -0.0168618 0
233 233 1 0.001 304000 -0.0229033 0.0557586 0
234 234 1 0.001 304000 -0.145626 0.0561928 0
235 235 1 0.001 304000 -0.142119 0.0327184 0
236 236 1 0.001 304000 -0.0546982 0.0577389 0
237 237 1 0.001 304000 -0.0748351 -0.0694574 0
238 238 1 0.001 304000 0.0400094 0.0348529 0
239 239 1 0.001 304000 -0.0931223 0.0267913 0
240 240 1 0.001 304000 -0.043367 0.0611529 0
241 241 1 0.001 304000 -0.0561996 -0.0191281 0
242 242 1 0.001 304000 -0.0572008 -0.030143 0
243 243 1 0.001 304000 0.120114 -0.0431152 0
244 244 1 0.001 304000 -0.0634688 -0.00555683 0
245 245 1 0.001 304000 -0.114481 0.050368 0
246 246 1 0.001 304000 0.0662103 -0.037752 0
247 247 1 0.001 304000 -0.0942332 0.0718735 0
248 248 1 0.001 304000 0.126525 0.0573237 0
249 249 1 0.001 304000 0.0688503 -0.0469077 0
250 250 1 0.001 304000 0.108686 -0.0153938 0
251 251 1 0.001 304000 -0.142984 0.0177089 0
252 252 1 0.001 304000 0.153477 0.0655531 0
253 253 1 0.001 304000 -0.0870897 -0.00717519 0
254 254 1 0.001 304000 -0.01741 0.0539239 0
255 255 1 0.001 304000 0.145497 -0.0385513 0
256 256 1 0.001 304000 0.0111489 0.0155773 0
257 257 1 0.001 304000 0.0232952 -0.0676701 0
258 258 1 0.001 304000 0.0409608 0.0420351 0
259 259 1 0.001 304000 -0.0927706 0.00226009 0
260 260 1 0.001 304000 -0.0513255 0.0569962 0
261 261 1 0.001 304000 0.0323173 -0.050469 0
262 262 1 0.001 304000 0.0682575 -0.0171727 0
263 263 1 0.001 304000 0.10914 -0.0662881 0
264 264 1 0.001 304000 -0.147135 -0.040387 0
265 265 1 0.001 304000 0.0210048 -0.0159858 0
266 266 1 0.001 304000 -0.0281846 0.0422892 0
267 267 1 0.001 304000 0.103801 -0.014455 0
268 268 1 0.001 304000 -0.0801979 0.02005 0
269 269 1 0.001 304000 -0.0387021 0.0563995 0
270 270 1 0.001 304000 -0.138188 0.0172324 0
271 271 1 0.001 304000 0.0191813 0.00317195 0
272 272 1 0.001 304000 -0.142281 0.0689086 0
273 273 1 0.001 304000 0.132328 0.0452867 0
274 274 1 0.001 304000 0.010552 0.0446951 0
275 275 1 0.001 304000 -0.0533734 -0.0036734 0
276 276 1 0.001 304000 -0.0394743 0.0530326 0
277 277 1 0.001 304000 -0.124514 0.00766817 0
278 278 1 0.001 304000 0.1179 -0.0124619 0
279 279 1 0.001 304000 0.146011 0.0173478 0
280 280 1 0.001 304000 0.148757 0.0318049 0
281 281 1 0.001 304000 -0.151035 0.0127638 0
282 282 1 0.001 304000 0.121448 0.0653461 0
283 283 1 0.001 304000 0.015833 0.0435827 0
284 284 1 0.001 304000 0.0507533 -0.0768845 0
285 285 1 0.001 304000 0.12174 0.0161924 0
286 286 1 0.001 304000 -0.0866014 -0.0515692 0
287 287 1 0.001 304000 -0.0159128 -0.0159462 0
288 288 1 0.001 304000 0.13476 0.0768019 0
289 289 1 0.001 304000 -0.121266 0.0666788 0
290 290 1 0.001 304000 -0.108966 0.0295798 0
291 291 1 0.001 304000 -0.025466 0.0503924 0
292 292 1 0.001 304000 0.0260674 0.00163161 0
293 293 1 0.001 304000 0.00789069 0.0589613 0
294 294 1 0.001 304000 0.0777049 -0.0461713 0
295 295 1 0.001 304000 0.138195 -0.0550899 0
296 296 1 0.001 304000 -0.0266997 -0.025909 0
297 297 1 0.001 304000 0.0316891 0.0651999 0
298 298 1 0.001 304000 -0.0429308 0.0733527 0
299 299 1 0.001 304000 0.14817 0.0365972 0
300 300 1 0.001 304000 -0.0831722 0.0424736 0
301 301 1 0.001 304000 -0.0127813 -0.0757426 0
302 302 1 0.001 304000 0.119101 0.0423608 0
303 303 1 0.001 304000 -0.14208 0.0396746 0
304 304 1 0.001 304000 0.110561 0.0736797 0
305 305 1 0.001 304000 0.104055 0.0209488 0
306 306 1 0.001 304000 0.0199392 -0.045575 0
307 307 1 0.001 304000 -0.0466775 0.00408762 0
308 308 1 0.001 304000 0.0652254 -0.0169315 0
309 309 1 0.001 304000 -0.103207 -0.053152 0
310 310 1 0.001 304000 0.116599 -0.0548316 0
311 311 1 0.001 304000 -0.0208572 -0.0575046 0
312 312 1 0.001 304000 0.116451 0.00457122 0
313 313 1 0.001 304000 -0.117284 0.0110741 0
314 314 1 0.001 304000 0.116736 -0.0190574 0
315 315 1 0.001 304000 -0.104115 0.0676029 0
316 316 1 0.001 304000 -0.121827 0.0539249 0
317 317 1 0.001 304000 0.0267802 0.0504147 0
318 318 1 0.001 304000 -0.137867 -0.0290048 0
319 319 1 0.001 304000 -0.018234 -0.073519 0
320 320 1 0.001 304000 -0.0054534 -0.0128523 0
321 321 1 0.001 304000 0.115049 -0.0162603 0
322 322 1 0.001 304000 0.0903768 -0.033638 0
323 323 1 0.001 304000 0.0357287 -0.0602448 0
324 324 1 0.001 304000 0.0657799 0.0357427 0
325 325 1 0.001 304000 -0.129699 -0.0100705 0
326 326 1 0.001 304000 -0.12164 0.0593309 0
327 327 1 0.001 304000 -0.0356312 -0.0264343 0
328 328 1 0.001 304000 -0.0810954 0.0387432 0
329 329 1 0.001 304000 -0.0446074 0.0339677 0
330 330 1 0.001 304000 0.0658841 0.0547855 0
331 331 1 0.001 304000 0.0703564 0.00636892 0
332 332 1 0.001 304000 0.111491 -0.0696067 0
333 333 1 0.001 304000 0.1206 0.00219128 0
334 334 1 0.001 304000 0.0306535 0.0719986 0
335 335 1 0.001 304000 0.107243 0.0657628 0
336 336 1 0.001 304000 -0.0890862 0.049733 0
337 337 1 0.001 304000 -0.0902316 -0.0607065 0
338 338 1 0.001 304000 -0.0800443 -0.0680689 0
339 339 1 0.001 304000 -0.0206593 -0.00428011 0
340 340 1 0.001 304000 -0.145506 -0.0325089 0
341 341 1 0.001 304000 -0.143294 0.0631981 0
342 342 1 0.001 304000 -0.0137561 -0.035156 0
343 343 1 0.001 304000 -0.0241409 0.0597758 0
344 344 1 0.001 304000 0.110314 -0.0382163 0
345 345 1 0.001 304000 0.0857048 0.063097 0
346 346 1 0.001 304000 -0.00503469 -0.0665341 0
347 347 1 0.001 304000 -0.0721983 -0.00835543 0
348 348 1 0.001 304000 -0.0530117 0.00377309 0
349 349 1 0.001 304000 -0.142538 0.070478 0
350 350 1 0.001 304000 0.129551 -0.0183514 0
351 351 1 0.001 304000 -0.119061 0.0100251 0
352 352 1 0.001 304000 0.0733533 -0.0496749 0
353 353 1 0.001 304000 -0.123531 0.0401736 0
354 354 1 0.001 304000 0.10185 0.00131145 0
355 355 1 0.001 304000 -0.0719762 -0.0423282 0
356 356 1 0.001 304000 0.0571699 0.0514844 0
357 357 1 0.001 304000 -0.0412742 0.0388169 0
358 358 1 0.001 304000 -0.0147741 -0.0232983 0
359 359 1 0.001 304000 -0.0762023 0.0721222 0
360 360 1 0.001 304000 -0.0100536 0.0389952 0
361 361 1 0.001 304000 -0.0640267 0.0584292 0
362 362 1 0.001 304000 -0.070984 -0.0649289 0
363 363 1 0.001 304000 0.0163417 -0.0223137 0
364 364 1 0.001 304000 0.0504671 0.0149055 0
365 365 1 0.001 304000 -0.0583005 -0.0239381 0
366 366 1 0.001 304000 -0.0351611 0.0207521 0
367 367 1 0.001 304000 -0.13546 0.0225115 0
368 368 1 0.001 304000 0.0880567 0.00480413 0
369 369 1 0.001 304000 -0.0201119 0.0428586 0
370 370 1 0.001 304000 -0.110488 -0.0599446 0
371 371 1 0.001 304000 0.0846165 -0.00885649 0
372 372 1 0.001 304000 -0.0331128 -0.0164386 0
373 373 1 0.001 304000 -0.0885265 -0.0620744 0
374 374 1 0.001 304000 0.0371859 -0.0252932 0
375 375 1 0.001 304000 -0.111924 0.0337996 0
376 376 1 0.001 304000 -0.0121782 0.043496 0
377 377 1 0.001 304000 0.117163 0.000741059 0
378 378 1 0.001 304000 -0.0411006 -0.0444688 0
379 379 1 0.001 304000 0.108389 0.0298533 0
380 380 1 0.001 304000 0.0981055 0.0486676 0
381 381 1 0.001 304000 0.0549492 -0.0464422 0
382 382 1 0.001 304000 -0.0718502 -0.0473776 0
383 383 1 0.001 304000 0.151 -0.0322486 0
384 384 1 0.001 304000 0.0701746 -0.0178495 0
385 385 1 0.001 304000 0.142912 0.00185304 0
386 386 1 0.001 304000 -0.033877 -0.068907 0
387 387 1 0.001 304000 -0.0680137 -0.0424333 0
388 388 1 0.001 304000 0.0629792 -0.0399005 0
389 389 1 0.001 304000 0.0370249 -0.0478558 0
390 390 1 0.001 304000 0.0272429 0.0648459 0
391 391 1 0.001 304000 0.0751991 -0.00034178 0
392 392 1 0.001 304000 -0.133435 -0.0672834 0
393 393 1 0.001 304000 0.0270351 -0.0246681 0
394 394 1 0.001 304000 0.147307 -0.00432294 0
395 395 1 0.001 304000 0.0521851 0.0608423 0
396 396 1 0.001 304000 -0.15078 -0.0397266 0
397 397 1 0.001 304000 0.0847703 0.0645838 0
398 398 1 0.001 304000 -0.0776098 -0.0669522 0
399 399 1 0.001 304000 -0.0343196 0.0382792 0
400 400 1 0.001 304000 0.0545177 0.0249719 0
401 401 1 0.001 304000 0.107754 -0.0482655 0
402 402 1 0.001 304000 -0.0209896 -0.032338 0
403 403 1 0.001 304000 0.0950515 0.0159388 0
404 404 1 0.001 304000 -0.0156195 -0.0713202 0
405 405 1 0.001 304000 -0.0393602 -0.00202316 0
406 406 1 0.001 304000 -0.0100943 0.0732803 0
407 407 1 0.001 304000 -0.063669 0.0290541 0
408 408 1 0.001 304000 -0.0982435 -0.0670395 0
409 409 1 0.001 304000 -0.0581085 0.0169712 0
410 410 1 0.001 304000 -0.017843 0.0394371 0
411 411 1 0.001 304000 -0.00918247 0.0718274 0
412 412 1 0.001 304000 -0.138859 0.0253643 0
413 413 1 0.001 304000 0.124021 0.00923338 0
414 414 1 0.001 304000 0.00603448 0.0375142 0
415 415 1 0.001 304000 0.124676 -0.0519393 0
416 416 1 0.001 304000 0.153455 -0.0068504 0
417 417 1 0.001 304000 0.145124 0.0380763 0
418 418 1 0.001 304000 -0.0859979 -0.0735454 0
419 419 1 0.001 304000 -0.0420883 0.062895 0
420 420 1 0.001 304000 -0.0534092 -0.0577811 0
421 421 1 0.001 304000 0.0754227 0.0518257 0
422 422 1 0.001 304000 -0.137136 -0.0254821 0
423 423 1 0.001 304000 -0.0245585 -0.0397344 0
424 424 1 0.001 304000 0.0311748 0.0475425 0
425 425 1 0.001 304000 -0.0842185 -0.0638263 0
426 426 1 0.001 304000 0.0342289 0.0768784 0
427 427 1 0.001 304000 -0.135746 -0.0181457 0
428 428 1 0.001 304000 0.140511 -0.0727464 0
429 429 1 0.001 304000 -0.0854602 0.0372573 0
430 430 1 0.001 304000 0.123147 -0.0401264 0
431 431 1 0.001 304000 -0.127823 -0.0355345 0
432 432 1 0.001 304000 -0.060931 -0.0412233 0
433 433 1 0.001 304000 -0.00409851 0.0523037 0
434 434 1 0.001 304000 0.151267 -0.00434615 0
435 435 1 0.001 304000 0.137886 0.0499835 0
436 436 1 0.001 304000 -0.125442 0.0435423 0
437 437 1 0.001 304000 -0.115308 0.032355 0
438 438 1 0.001 304000 0.0999302 0.0538016 0
439 439 1 0.001 304000 -0.134137 -0.0356928 0
440 440 1 0.001 304000 0.0927855 0.0310219 0
441 441 1 0.001 304000 0.0206385 0.0474729 0
442 442 1 0.001 304000 0.0997267 -0.0390852 0
443 443 1 0.001 304000 0.0472121 0.0378672 0
444 444 1 0.001 304000 0.0738802 -0.0292498 0
445 445 1 0.001 304000 0.0140498 0.0220381 0
446 446 1 0.001 304000 -0.0425358 0.0233744 0
447 447 1 0.001 304000 -0.119006 0.0040645 0
448 448 1 0.001 304000 0.0218657 0.0371455 0
449 449 1 0.001 304000 0.102794 -0.0217577 0
450 450 1 0.001 304000 -0.00699502 -0.00203174 0
451 451 1 0.001 304000 -0.0021631 -0.0635084 0
452 452 1 0.001 304000 0.091958 0.00786765 0
453 453 1 0.001 304000 -0.0760403 -0.0711593 0
454 454 1 0.001 304000 0.0842535 0.0552505 0
455 455 1 0.001 304000 -0.149154 0.0622586 0
456 456 1 0.001 304000 -0.104935 0.0024884 0
457 457 1 0.001 304000 -0.0978096 0.0532654 0
458 458 1 0.001 304000 -0.144616 0.0610289 0
459 459 1 0.001 304000 -0.0247562 0.0529488 0
460 460 1 0.001 304000 -0.0408315 -0.0255138 0
461 461 1 0.001 304000 0.0438374 -0.0537946 0
462 462 1 0.001 304000 -0.0259185 0.0190838 0
463 463 1 0.001 304000 0.0937488 -0.0718184 0
464 464 1 0.001 304000 0.0675311 0.0440545 0
465 465 1 0.001 304000 -0.0748886 0.0161739 0
466 466 1 0.001 304000 0.0834697 0.0708676 0
467 467 1 0.001 304000 -0.0359551 -0.066331 0
468 468 1 0.001 304000 0.00204554 -0.0679283 0
469 469 1 0.001 304000 0.130067 -0.0222355 0
470 470 1 0.001 304000 -0.0342145 0.0482788 0
471 471 1 0.001 304000 -0.124668 -0.0593608 0
472 472 1 0.001 304000 0.060294 -0.0611535 0
473 473 1 0.001 304000 -0.0889567 -0.046909 0
474 474 1 0.001 304000 0.0372182 0.0334833 0
475 475 1 0.001 304000 -0.0271891 -0.0714071 0
476 476 1 0.001 304000 0.111103 0.017638 0
477 477 1 0.001 304000 -0.0274389 0.0502355 0
478 478 1 0.001 304000 0.130215 -0.00493469 0
479 479 1 0.001 304000 -0.145062 0.0539071 0
480 480 1 0.001 304000 0.0306474 0.0666834 0
481 481 1 0.001 304000 -0.000322903 0.0701003 0
482 482 1 0.001 304000 0.0681893 0.074102 0
483 483 1 0.001 304000 0.136761 -0.064469 0
484 484 1 0.001 304000 0.0880298 -0.0258531 0
485 485 1 0.001 304000 -0.127364 -0.0545034 0
486 486 1 0.001 304000 0.0908595 0.0260626 0
487 487 1 0.001 304000 -0.0354209 0.0238205 0
488 488 1 0.001 304000 -0.0290076 -0.00779526 0
489 489 1 0.001 304000 -0.0692399 -0.0162251 0
490 490 1 0.001 304000 0.0980947 -0.0436205 0
491 491 1 0.001 304000 0.100049 0.0423714 0
492 492 1 0.001 304000 -0.0759645 0.0203313 0
493 493 1 0.001 304000 0.0667927 0.0535605 0
494 494 1 0.001 304000 -0.109888 -0.00331375 0
495 495 1 0.001 304000 -0.0982835 0.0134553 0
496 496 1 0.001 304000 0.142151 -0.0768975 0
497 497 1 0.001 304000 0.0234207 -0.0366578 0
498 498 1 0.001 304000 -0.0206507 0.071288 0
499 499 1 0.001 304000 -0.0392195 0.0310102 0
500 500 1 0.001 304000 0.0465258 0.0670053 0
501 501 1 0.001 304000 -0.0658907 0.00549615 0
502 502 1 0.001 304000 -0.0970562 0.0488146 0
503 503 1 0.001 304000 0.0857645 -0.0673018 0
504 504 1 0.001 304000 0.047872 0.0683248 0
505 505 1 0.001 304000 -0.131577 0.0684776 0
506 506 1 0.001 304000 -0.112308 0.0685572 0
507 507 1 0.001 304000 0.05353 0.0653372 0
508 508 1 0.001 304000 -0.0465462 0.0116468 0
509 509 1 0.001 304000 0.148232 -0.0481434 0
510 510 1 0.001 304000 0.120846 -0.00648086 0
511 511 1 0.001 304000 0.0184984 -0.0299776 0
512 512 1 0.001 304000 -0.0626579 -0.00377449 0
513 513 1 0.001 304000 0.0551254 0.0595361 0
514 514 1 0.001 304000 0.00310799 0.00491749 0
515 515 1 0.001 304000 0.10785 -0.0439939 0
516 516 1 0.001 304000 -0.0477667 0.0163261 0
517 517 1 0.001 304000 0.126002 -0.00527062 0
518 518 1 0.001 304000 0.0336816 0.0332466 0
519 519 1 0.001 304000 -0.121734 -0.0766849 0
520 520 1 0.001 304000 -0.0363211 -0.0221335 0
521 521 1 0.001 304000 0.102836 0.0405299 0
522 522 1 0.001 304000 -0.149633 -0.0221736 0
523 523 1 0.001 304000 0.00387595 -0.0701224 0
524 524 1 0.001 304000 0.120892 0.0475454 0
525 525 1 0.001 304000 -0.0652484 -0.00345479 0
526 526 1 0.001 304000 -0.0539774 0.0193572 0
527 527 1 0.001 304000 0.128849 -0.012456 0
528 528 1 0.001 304000 0.106143 0.0128269 0
529 529 1 0.001 304000 -0.10014 0.0618478 0
530 530 1 0.001 304000 0.126096 0.00208977 0
531 531 1 0.001 304000 0.0480151 0.0580035 0
532 532 1 0.001 304000 -0.0686436 0.0128682 0
533 533 1 0.001 304000 -0.0571449 0.0362789 0
534 534 1 0.001 304000 0.0479331 0.0102703 0
535 535 1 0.001 304000 0.0657178 0.0753208 0
536 536 1 0.001 304000 0.0352377 0.075787 0
537 537 1 0.001 304000 0.0753616 -0.0533356 0
538 538 1 0.001 304000 -0.136903 0.0179134 0
539 539 1 0.001 304000 -0.136786 0.0767499 0
540 540 1 0.001 304000 -0.135129 -0.0766353 0
541 541 1 0.001 304000 -0.0365606 -0.0411682 0
542 542 1 0.001 304000 0.0206947 -0.0571409 0
543 543 1 0.001 304000 0.0080193 -0.0480546 0
544 544 1 0.001 304000 0.149648 0.0121948 0
545 545 1 0.001 304000 -0.0429721 -0.00617488 0
546 546 1 0.001 304000 0.10239 0.035827 0
547 547 1 0.001 304000 0.140924 -0.0211785 0
548 548 1 0.001 304000 -0.0655395 -0.00991877 0
549 549 1 0.001 304000 0.103858 0.0232559 0
550 550 1 0.001 304000 -0.0837462 0.0212328 0
551 551 1 0.001 304000 0.151483 0.0471772 0
552 552 1 0.001 304000 0.0206569 0.0540884 0
553 553 1 0.001 304000 0.139724 -0.0239373 0
554 554 1 0.001 304000 -0.127866 0.0205442 0
555 555 1 0.001 304000 0.0109977 -0.0580438 0
556 556 1 0.001 304000 -0.0258166 0.0475475 0
557 557 1 0.001 304000 -0.00484968 -0.0419415 0
558 558 1 0.001 304000 0.0474301 -0.0293375 0
559 559 1 0.001 304000 -0.0364792 -0.0752953 0
560 560 1 0.001 304000 0.144703 -0.00284228 0
561 561 1 0.001 304000 -0.0400965 -0.00983962 0
562 562 1 0.001 304000 -0.11144 -0.00398028 0
563 563 1 0.001 304000 -0.0677049 -0.0553015 0
564 564 1 0.001 304000 0.0915821 0.0297779 0
565 565 1 0.001 304000 0.102273 -0.0598342 0
566 566 1 0.001 304000 -0.0933172 -0.0669002 0
567 567 1 0.001 304000 0.0620097 -0.0728443 0
568 568 1 0.001 304000 0.00970145 0.0641641 0
569 569 1 0.001 304000 -0.123882 0.00897666 0
570 570 1 0.001 304000 -0.0150813 0.0297317 0
571 571 1 0.001 304000 -0.151743 0.0566532 0
572 572 1 0.001 304000 -0.0538026 0.00118316 0
573 573 1 0.001 304000 -0.0269025 0.0724808 0
574 574 1 0.001 304000 -0.0218149 0.0415962 0
575 575 1 0.001 304000 0.0987435 0.0131038 0
576 576 1 0.001 304000 -0.0556355 0.0283552 0
577 577 1 0.001 304000 0.104321 -0.0622986 0
578 578 1 0.001 304000 0.0365933 -0.0516573 0
579 579 1 0.001 304000 0.145876 0.0740793 0
580 580 1 0.001 304000 0.0613477 0.0642172 0
581 581 1 0.001 304000 -0.013468 0.0272552 0
582 582 1 0.001 304000 -0.101453 0.0517992 0
583 583 1 0.001 304000 -0.112444 -0.0198729 0
584 584 1 0.001 304000 -0.148984 0.0672664 0
585 585 1 0.001 304000 -0.128016 -0.00606258 0
586 586 1 0.001 304000 -0.013454 0.0159245 0
587 587 1 0.001 304000 -0.0428898 -0.0497837 0
588 588 1 0.001 304000 0.0254637 0.0749711 0
589 589 1 0.001 304000 -0.026489 0.0343249 0
590 590 1 0.001 304000 0.115199 -0.019858 0
591 591 1 0.001 304000 -0.114295 0.0687566 0
592 592 1 0.001 304000 -0.0831212 -0.0699038 0
593 593 1 0.001 304000 0.059013 0.0428767 0
594 594 1 0.001 304000 -0.0100176 0.0151632 0
595 595 1 0.001 304000 0.00732514 -0.0190678 0
596 596 1 0.001 304000 0.0909887 -0.0712036 0
597 597 1 0.001 304000 -0.0701407 -0.0554533 0
598 598 1 0.001 304000 0.0989486 -0.00492208 0
599 599 1 0.001 304000 -0.119774 0.0168518 0
600 600 1 0.001 304000 0.000180153 -0.0115169 0
601 601 1 0.001 304000 -0.0283855 -0.0470285 0
602 602 1 0.001 304000 -0.11406 0.07481 0
603 603 1 0.001 304000 0.125256 -0.0361299 0
604 604 1 0.001 304000 -0.0582139 -0.0174978 0
605 605 1 0.001 304000 -0.0789686 -0.0160041 0
606 606 1 0.001 304000 -0.102663 -0.0139242 0
607 607 1 0.001 304000 0.0130569 0.0150003 0
608 608 1 0.001 304000 0.0279052 -0.0733617 0
609 609 1 0.001 304000 -0.151463 -0.036012 0
610 610 1 0.001 304000 0.0338957 -0.00227633 0
611 611 1 0.001 304000 0.0636747 0.00255172 0
612 612 1 0.001 304000 0.0829946 0.0365801 0
613 613 1 0.001 304000 -0.0808548 0.0586877 0
614 614 1 0.001 304000 0.11034 -0.0169073 0
615 615 1 0.001 304000 0.0353118 0.000535197 0
616 616 1 0.001 304000 0.151565 0.0300506 0
617 617 1 0.001 304000 -0.111635 0.0555362 0
618 618 1 0.001 304000 -0.117384 0.0682054 0
619 619 1 0.001 304000 0.101826 0.0630288 0
620 620 1 0.001 304000 -0.0662463 0.0406893 0
621 621 1 0.001 304000 -0.073775 0.0378373 0
622 622 1 0.001 304000 0.0488292 0.0170922 0
623 623 1 0.001 304000 -0.103237 -0.0372045 0
624 624 1 0.001 304000 0.0874501 -0.0299679 0
625 625 1 0.001 304000 0.0823053 0.0333861 0
626 626 1 0.001 304000 0.102835 -0.0706529 0
627 627 1 0.001 304000 0.124443 0.0699251 0
628 628 1 0.001 304000 0.0169518 -0.0244761 0
629 629 1 0.001 304000 0.0551892 -0.00241317 0
630 630 1 0.001 304000 0.10802 -0.00609436 0
631 631 1 0.001 304000 0.112967 -0.0435592 0
632 632 1 0.001 304000 0.0317619 -0.0748336 0
633 633 1 0.001 304000 -0.14472 0.0707401 0
634 634 1 0.001 304000 -0.0983665 0.0610143 0
635 635 1 0.001 304000 -0.0992034 -0.0102022 0
636 636 1 0.001 304000 0.102169 0.0190504 0
637 637 1 0.001 304000 0.0350748 -0.0118571 0
638 638 1 0.001 304000 0.0729727 0.00336898 0
639 639 1 0.001 304000 0.0124587 0.0517676 0
640 640 1 0.001 304000 -0.146137 0.00164127 0
641 641 1 0.001 304000 -0.126498 0.0263245 0
642 642 1 0.001 304000 0.13636 -0.067933 0
643 643 1 0.001 304000 -0.00762286 0.0336338 0
644 644 1 0.001 304000 -0.108492 -0.0202327 0
645 645 1 0.001 304000 0.0497644 -0.0566128 0
646 646 1 0.001 304000 0.0900017 -0.00929539 0
647 647 1 0.001 304000 0.107876 -0.00998147 0
648 648 1 0.001 304000 0.0428119 0.00428759 0
649 649 1 0.001 304000 0.0854339 -0.0584855 0
650 650 1 0.001 304000 0.139318 0.0213882 0
651 651 1 0.001 304000 -0.018396 0.0609686 0
652 652 1 0.001 304000 0.088494 -0.00550275 0
653 653 1 0.001 304000 0.129922 0.0622853 0
654 654 1 0.001 304000 -0.0246719 -0.0570714 0
655 655 1 0.001 304000 0.132908 -0.0129324 0
656 656 1 0.001 304000 0.0254773 0.0573927 0
657 657 1 0.001 304000 0.0588868 0.0170637 0
658 658 1 0.001 304000 -0.0318082 0.0174671 0
659 659 1 0.001 304000 -0.135076 0.0672141 0
660 660 1 0.001 304000 0.0208828 -0.0646846 0