Non-intersecting ant raft

5862 atoms
1 atom types
2 bond types
-0.0605 0.0605 xlo xhi
-0.055 0.055 ylo yhi
-0.0055 0.0055 zlo zhi

Atoms

1 1 1 0.001 304000 0.0450387 -0.0215127 0
2 2 1 0.001 304000 -0.0261659 0.00736221 0
3 3 1 0.001 304000 -0.0170624 0.0196128 0
4 4 1 0.001 304000 -0.0471354 -0.0390823 0
5 5 1 0.001 304000 0.00547138 -0.000500088 0
6 6 1 0.001 304000 -0.0079238 -0.013999 0
7 7 1 0.001 304000 -0.0291737 0.0174444 0
8 8 1 0.001 304000 -0.0119108 0.0222111 0
9 9 1 0.001 304000 0.0440186 -0.0018537 0
10 10 1 0.001 304000 -0.00598736 0.0283406 0
11 11 1 0.001 304000 0.0525737 -0.0121007 0
12 12 1 0.001 304000 0.0372052 -0.0468715 0
13 13 1 0.001 304000 0.0108485 -0.018171 0
14 14 1 0.001 304000 -0.00219816 0.0293104 0
15 15 1 0.001 304000 0.00451706 -0.0272973 0
16 16 1 0.001 304000 0.0279836 -0.0340172 0
17 17 1 0.001 304000 -0.0504151 0.0478964 0
18 18 1 0.001 304000 0.0277765 0.0457295 0
19 19 1 0.001 304000 0.00118752 0.0472915 0
20 20 1 0.001 304000 -0.0385722 0.0439388 0
21 21 1 0.001 304000 -0.0222021 -0.043385 0
22 22 1 0.001 304000 0.0342603 0.000853356 0
23 23 1 0.001 304000 0.0337899 -0.0219021 0
24 24 1 0.001 304000 0.0465067 0.038731 0
25 25 1 0.001 304000 -0.00273973 -0.0206957 0
26 26 1 0.001 304000 0.040022 -0.000179226 0
27 27 1 0.001 304000 0.0489579 -0.0503784 0
28 28 1 0.001 304000 -0.0367555 -0.0145685 0
29 29 1 0.001 304000 -0.0204209 0.0511379 0
30 30 1 0.001 304000 -0.0392933 0.0399981 0
31 31 1 0.001 304000 -0.0222907 -0.0109083 0
32 32 1 0.001 304000 0.0128156 -0.0502551 0
33 33 1 0.001 304000 0.0185014 -0.0486905 0
34 34 1 0.001 304000 -0.00851603 -0.0309692 0
35 35 1 0.001 304000 -0.0206112 0.00570864 0
36 36 1 0.001 304000 0.0319805 0.04754 0
37 37 1 0.001 304000 0.0180366 0.000134317 0
38 38 1 0.001 304000 0.00916905 0.0362382 0
39 39 1 0.001 304000 -0.00624673 -0.0187532 0
40 40 1 0.001 304000 0.0525574 0.0237317 0
41 41 1 0.001 304000 -0.0183036 0.0304946 0
42 42 1 0.001 304000 0.0458339 -0.0328452 0
43 43 1 0.001 304000 0.0337969 -0.0397507 0
44 44 1 0.001 304000 0.0266055 0.0427299 0
45 45 1 0.001 304000 0.0286318 0.0398549 0
46 46 1 0.001 304000 -0.0217923 -0.0311203 0
47 47 1 0.001 304000 0.00405967 -0.0474383 0
48 48 1 0.001 304000 -0.0137813 0.0376439 0
49 49 1 0.001 304000 -0.0292006 -0.0540685 0
50 50 1 0.001 304000 0.0297892 -0.012467 0
51 51 1 0.001 304000 0.0145262 0.0275882 0
52 52 1 0.001 304000 0.0398916 -0.0203616 0
53 53 1 0.001 304000 -0.047949 0.0134424 0
54 54 1 0.001 304000 0.0361009 -0.0425465 0
55 55 1 0.001 304000 -0.0107252 0.00792415 0
56 56 1 0.001 304000 0.0457844 -0.00310004 0
57 57 1 0.001 304000 0.0394052 0.0091267 0
58 58 1 0.001 304000 0.00696627 -0.0343265 0
59 59 1 0.001 304000 -0.0263496 0.0340627 0
60 60 1 0.001 304000 0.0457441 0.0289359 0
61 61 1 0.001 304000 0.0462396 0.0491581 0
62 62 1 0.001 304000 0.0367628 -0.0166103 0
63 63 1 0.001 304000 0.031177 -0.0186165 0
64 64 1 0.001 304000 0.0456782 0.00270604 0
65 65 1 0.001 304000 -0.00154306 0.00302348 0
66 66 1 0.001 304000 0.0532506 0.0203969 0
67 67 1 0.001 304000 0.0266134 -0.0453452 0
68 68 1 0.001 304000 -0.0108584 -0.014884 0
69 69 1 0.001 304000 0.011541 0.0448232 0
70 70 1 0.001 304000 0.0144133 -0.034745 0
71 71 1 0.001 304000 -0.0536051 0.0392102 0
72 72 1 0.001 304000 0.0236758 -0.0323302 0
73 73 1 0.001 304000 0.0533422 0.0464671 0
74 74 1 0.001 304000 0.0130752 -0.0213337 0
75 75 1 0.001 304000 -0.0352891 0.0488794 0
76 76 1 0.001 304000 -0.0500627 -0.0508393 0
77 77 1 0.001 304000 0.00631167 0.00970996 0
78 78 1 0.001 304000 -0.0307802 0.0493931 0
79 79 1 0.001 304000 0.0333343 0.0410382 0
80 80 1 0.001 304000 -0.00261257 0.0475461 0
81 81 1 0.001 304000 0.0260103 -0.0305339 0
82 82 1 0.001 304000 -0.042972 -0.00440184 0
83 83 1 0.001 304000 0.00463457 0.0147769 0
84 84 1 0.001 304000 0.0328974 -0.0336849 0
85 85 1 0.001 304000 -0.0102957 0.000101263 0
86 86 1 0.001 304000 -0.0442314 -0.0291023 0
87 87 1 0.001 304000 -0.0150707 -0.00934027 0
88 88 1 0.001 304000 0.00210789 0.0346013 0
89 89 1 0.001 304000 0.0478559 -0.0305135 0
90 90 1 0.001 304000 -0.0537194 0.0428144 0
91 91 1 0.001 304000 -0.0277541 0.0530263 0
92 92 1 0.001 304000 -0.0303185 0.000823691 0
93 93 1 0.001 304000 -0.0118322 0.0257861 0
94 94 1 0.001 304000 0.0204602 -0.00394469 0
95 95 1 0.001 304000 -0.0459506 -0.0240479 0
96 96 1 0.001 304000 -0.0157428 -0.000199862 0
97 97 1 0.001 304000 -0.0196564 -0.0537394 0
98 98 1 0.001 304000 -0.0262334 0.0170859 0
99 99 1 0.001 304000 -0.0545744 0.0293125 0
100 100 1 0.001 304000 -0.0177961 -0.0333234 0
101 101 1 0.001 304000 -0.0279973 0.00219531 0
102 102 1 0.001 304000 0.0267506 -0.00264039 0
103 103 1 0.001 304000 0.0186244 0.0424447 0
104 104 1 0.001 304000 -0.0210794 0.0286673 0
105 105 1 0.001 304000 0.0445122 -0.0287566 0
106 106 1 0.001 304000 0.0236062 0.00602123 0
107 107 1 0.001 304000 -0.0264305 0.00910769 0
108 108 1 0.001 304000 0.000759413 -0.0264357 0
109 109 1 0.001 304000 0.0132373 -0.0351527 0
110 110 1 0.001 304000 0.0456841 -0.0340554 0
111 111 1 0.001 304000 -0.0432762 0.0402786 0
112 112 1 0.001 304000 -0.00768869 -0.0492759 0
113 113 1 0.001 304000 0.0471445 0.00224064 0
114 114 1 0.001 304000 -0.04092 -0.0114551 0
115 115 1 0.001 304000 0.0535479 0.0151554 0
116 116 1 0.001 304000 -0.0519224 -0.0283435 0
117 117 1 0.001 304000 0.0174808 0.0500016 0
118 118 1 0.001 304000 -0.0462437 0.0423882 0
119 119 1 0.001 304000 -0.018945 0.00990337 0
120 120 1 0.001 304000 0.0544657 0.0288187 0
121 121 1 0.001 304000 -0.0168525 -0.0148811 0
122 122 1 0.001 304000 0.0367656 -0.0146309 0
123 123 1 0.001 304000 -0.00292554 -0.0473435 0
124 124 1 0.001 304000 -0.0113877 -0.0457679 0
125 125 1 0.001 304000 -0.0507392 -0.0479345 0
126 126 1 0.001 304000 0.00557737 -0.0112523 0
127 127 1 0.001 304000 -0.0419391 0.0269012 0
128 128 1 0.001 304000 -0.0454741 -0.00675343 0
129 129 1 0.001 304000 -0.00490385 0.0211529 0
130 130 1 0.001 304000 -0.0301322 0.0517427 0
131 131 1 0.001 304000 -0.00775183 -0.0231026 0
132 132 1 0.001 304000 -0.0170963 -0.0513478 0
133 133 1 0.001 304000 -0.00269091 -0.0182171 0
134 134 1 0.001 304000 -0.0161224 -0.00185293 0
135 135 1 0.001 304000 -0.026215 -0.0110344 0
136 136 1 0.001 304000 0.0252485 -0.0314649 0
137 137 1 0.001 304000 0.0309624 -0.00976435 0
138 138 1 0.001 304000 -0.0146843 -0.0150493 0
139 139 1 0.001 304000 0.00930329 0.0386871 0
140 140 1 0.001 304000 -0.0328946 0.0284418 0
141 141 1 0.001 304000 0.0440916 0.0382786 0
142 142 1 0.001 304000 0.0445227 0.0286326 0
143 143 1 0.001 304000 -0.0311408 0.0452751 0
144 144 1 0.001 304000 -0.0208156 -0.017998 0
145 145 1 0.001 304000 0.0267476 -0.00131113 0
146 146 1 0.001 304000 0.0135431 -0.012331 0
147 147 1 0.001 304000 0.0359788 0.051959 0
148 148 1 0.001 304000 -0.0369296 0.0388411 0
149 149 1 0.001 304000 -0.0520957 -0.00852737 0
150 150 1 0.001 304000 0.0546588 0.00562166 0
151 151 1 0.001 304000 0.00460786 -0.046005 0
152 152 1 0.001 304000 0.047252 0.0168871 0
153 153 1 0.001 304000 0.0363775 0.039878 0
154 154 1 0.001 304000 0.0453801 0.041972 0
155 155 1 0.001 304000 -0.01135 0.00943486 0
156 156 1 0.001 304000 0.0535333 0.037577 0
157 157 1 0.001 304000 0.0458886 -0.0061516 0
158 158 1 0.001 304000 0.0214946 -0.0451388 0
159 159 1 0.001 304000 0.0430665 0.0317451 0
160 160 1 0.001 304000 -0.0357223 0.000496087 0
161 161 1 0.001 304000 -0.0122643 -0.0105458 0
162 162 1 0.001 304000 -0.029344 0.0461792 0
163 163 1 0.001 304000 -0.0516034 0.0248927 0
164 164 1 0.001 304000 0.0468682 -0.0271073 0
165 165 1 0.001 304000 -0.0125549 -0.0356939 0
166 166 1 0.001 304000 -0.0389007 0.0294184 0
167 167 1 0.001 304000 0.00659369 0.0469696 0
168 168 1 0.001 304000 0.00098684 0.0205109 0
169 169 1 0.001 304000 0.00125599 0.0063941 0
170 170 1 0.001 304000 0.0420783 0.00696659 0
171 171 1 0.001 304000 -0.0112138 -0.0540853 0
172 172 1 0.001 304000 -0.00829744 0.039228 0
173 173 1 0.001 304000 -0.0212269 0.0141995 0
174 174 1 0.001 304000 -0.0530578 -0.0186585 0
175 175 1 0.001 304000 -0.0240898 0.0518829 0
176 176 1 0.001 304000 -0.0128634 0.0532924 0
177 177 1 0.001 304000 0.0299175 -0.0204364 0
178 178 1 0.001 304000 0.0525342 0.00506373 0
179 179 1 0.001 304000 -0.0485652 0.052106 0
180 180 1 0.001 304000 -0.0263799 -0.033824 0
181 181 1 0.001 304000 -0.0179758 -0.0544389 0
182 182 1 0.001 304000 0.0498236 0.0120785 0
183 183 1 0.001 304000 -0.024857 -0.0474134 0
184 184 1 0.001 304000 0.0058008 -0.0402129 0
185 185 1 0.001 304000 -0.00293741 0.0457884 0
186 186 1 0.001 304000 -0.00803003 0.0127602 0
187 187 1 0.001 304000 0.042209 0.0370554 0
188 188 1 0.001 304000 -0.0226786 -0.0254567 0
189 189 1 0.001 304000 0.0337743 0.0420805 0
190 190 1 0.001 304000 0.0495698 0.0504643 0
191 191 1 0.001 304000 -0.0436205 0.0297527 0
192 192 1 0.001 304000 0.0260441 0.0218066 0
193 193 1 0.001 304000 0.048628 0.0218521 0
194 194 1 0.001 304000 -0.0161987 -0.0505493 0
195 195 1 0.001 304000 -0.0150661 0.0351867 0
196 196 1 0.001 304000 0.0164777 0.0382087 0
197 197 1 0.001 304000 0.00586115 -0.0255707 0
198 198 1 0.001 304000 -0.0428872 -0.0525283 0
199 199 1 0.001 304000 -0.00755177 0.0431472 0
200 200 1 0.001 304000 -0.0178065 -0.0396677 0
201 201 1 0.001 304000 0.00355084 -0.00693075 0
202 202 1 0.001 304000 0.0416608 0.0386415 0
203 203 1 0.001 304000 -0.0262571 0.0491002 0
204 204 1 0.001 304000 0.0371898 0.00927553 0
205 205 1 0.001 304000 -0.0216738 0.0340694 0
206 206 1 0.001 304000 -0.0114717 -0.0412467 0
207 207 1 0.001 304000 -0.0145542 0.0409361 0
208 208 1 0.001 304000 0.0491547 0.0162487 0
209 209 1 0.001 304000 -0.0263043 0.0448171 0
210 210 1 0.001 304000 -0.0539042 -0.0535213 0
211 211 1 0.001 304000 0.00207741 -0.0164679 0
212 212 1 0.001 304000 0.0241735 0.0465591 0
213 213 1 0.001 304000 0.0373281 -0.0080916 0
214 214 1 0.001 304000 -0.0352727 0.0180941 0
215 215 1 0.001 304000 -0.051552 0.0437475 0
216 216 1 0.001 304000 -0.0221629 0.0259973 0
217 217 1 0.001 304000 0.00205607 -0.0522024 0
218 218 1 0.001 304000 0.0474545 -0.00168771 0
219 219 1 0.001 304000 -0.0506436 0.0359744 0
220 220 1 0.001 304000 0.0327855 0.0111177 0
221 221 1 0.001 304000 0.0395398 -0.025232 0
222 222 1 0.001 304000 0.0500069 0.0422793 0
223 223 1 0.001 304000 -0.0389482 -0.013032 0
224 224 1 0.001 304000 0.00977392 0.0107316 0
225 225 1 0.001 304000 0.000392607 -0.0500878 0
226 226 1 0.001 304000 -0.0107322 0.0479186 0
227 227 1 0.001 304000 -0.0274836 -0.0472784 0
228 228 1 0.001 304000 0.0296308 -0.0305964 0
229 229 1 0.001 304000 -0.0176674 0.0421091 0
230 230 1 0.001 304000 0.0215435 0.0439067 0
231 231 1 0.001 304000 0.000424599 -0.0225995 0
232 232 1 0.001 304000 0.0512677 -0.018478 0
233 233 1 0.001 304000 -0.0405476 0.0527464 0
234 234 1 0.001 304000 0.0207904 -0.00128416 0
235 235 1 0.001 304000 -0.0109206 0.0395548 0
236 236 1 0.001 304000 0.000202055 -0.0518883 0
237 237 1 0.001 304000 -0.0109595 -0.0297398 0
238 238 1 0.001 304000 -0.0294428 -0.047611 0
239 239 1 0.001 304000 0.0172998 0.0194668 0
240 240 1 0.001 304000 0.0135442 0.0534012 0
241 241 1 0.001 304000 0.026071 0.00181968 0
242 242 1 0.001 304000 0.0522533 -0.0156628 0
243 243 1 0.001 304000 -0.0075353 0.0415936 0
244 244 1 0.001 304000 0.0548326 -0.0447521 0
245 245 1 0.001 304000 0.00171592 0.0544937 0
246 246 1 0.001 304000 -0.032434 0.0119909 0
247 247 1 0.001 304000 -0.045178 0.0535219 0
248 248 1 0.001 304000 0.0171938 -0.0448593 0
249 249 1 0.001 304000 -0.0328541 -0.0225116 0
250 250 1 0.001 304000 -0.0447482 0.00349116 0
251 251 1 0.001 304000 -0.0097426 -0.013151 0
252 252 1 0.001 304000 -0.002574 -0.0457587 0
253 253 1 0.001 304000 -0.0450938 -0.0392549 0
254 254 1 0.001 304000 -0.0422776 -0.0121467 0
255 255 1 0.001 304000 0.0518181 0.00020621 0
256 256 1 0.001 304000 0.0106041 -0.0317865 0
257 257 1 0.001 304000 -0.05381 -0.0461761 0
258 258 1 0.001 304000 -0.0183474 -0.000609852 0
259 259 1 0.001 304000 -0.0139731 0.0198995 0
260 260 1 0.001 304000 0.0126444 0.0189105 0
261 261 1 0.001 304000 -0.0428766 -0.0491648 0
262 262 1 0.001 304000 0.0407481 0.04767 0
263 263 1 0.001 304000 0.0224392 0.0231452 0
264 264 1 0.001 304000 -0.0392628 0.00657347 0
265 265 1 0.001 304000 0.0462916 0.0355525 0
266 266 1 0.001 304000 -0.0350989 0.022728 0
267 267 1 0.001 304000 -0.0395798 -0.0145658 0
268 268 1 0.001 304000 0.0040266 -0.0531352 0
269 269 1 0.001 304000 -0.0236606 -0.000209332 0
270 270 1 0.001 304000 -0.0355733 -0.00496021 0
271 271 1 0.001 304000 0.0349468 0.0478084 0
272 272 1 0.001 304000 -0.00482204 -0.0232211 0
273 273 1 0.001 304000 0.0158535 0.0149781 0
274 274 1 0.001 304000 -0.0100329 0.0220731 0
275 275 1 0.001 304000 0.0120974 -0.0534072 0
276 276 1 0.001 304000 -0.029681 -0.0269899 0
277 277 1 0.001 304000 -0.0325365 0.00570997 0
278 278 1 0.001 304000 -0.0286396 -0.0111671 0
279 279 1 0.001 304000 -0.0122154 -0.00226487 0
280 280 1 0.001 304000 -0.0485549 -0.025957 0
281 281 1 0.001 304000 -0.0544784 -0.0350496 0
282 282 1 0.001 304000 0.00978041 -0.0294509 0
283 283 1 0.001 304000 0.0281804 0.0157926 0
284 284 1 0.001 304000 0.017407 -0.0480167 0
285 285 1 0.001 304000 0.0328643 -0.043139 0
286 286 1 0.001 304000 -0.0495098 -0.0272438 0
287 287 1 0.001 304000 0.0311276 0.00675507 0
288 288 1 0.001 304000 0.0470462 -0.0415126 0
289 289 1 0.001 304000 0.018541 -0.0513758 0
290 290 1 0.001 304000 -0.00405772 0.0298642 0
291 291 1 0.001 304000 0.0385512 -0.0241544 0
292 292 1 0.001 304000 0.0486018 0.0181213 0
293 293 1 0.001 304000 0.00624611 -0.0182276 0
294 294 1 0.001 304000 -0.0147161 0.0430508 0
295 295 1 0.001 304000 -0.0161117 0.0243323 0
296 296 1 0.001 304000 -0.0158614 -0.0114144 0
297 297 1 0.001 304000 -0.0358253 0.0311018 0
298 298 1 0.001 304000 -0.0135744 -0.0102785 0
299 299 1 0.001 304000 -0.0260294 0.0361837 0
300 300 1 0.001 304000 0.00411491 -0.0420634 0
301 301 1 0.001 304000 -0.0502906 -0.0520039 0
302 302 1 0.001 304000 -0.0114271 0.0376499 0
303 303 1 0.001 304000 0.0217791 -0.0410914 0
304 304 1 0.001 304000 0.0318062 0.0317217 0
305 305 1 0.001 304000 0.0390898 0.0144444 0
306 306 1 0.001 304000 -0.012646 -0.0201829 0
307 307 1 0.001 304000 -0.0328552 0.0525737 0
308 308 1 0.001 304000 0.00532687 0.0221343 0
309 309 1 0.001 304000 -0.00986118 0.0100292 0
310 310 1 0.001 304000 0.0268008 0.0167356 0
311 311 1 0.001 304000 0.0261687 -0.000106762 0
312 312 1 0.001 304000 0.0425841 0.00423074 0
313 313 1 0.001 304000 -0.0429629 -0.0422616 0
314 314 1 0.001 304000 0.034094 -0.0282528 0
315 315 1 0.001 304000 -0.0125861 -0.0381856 0
316 316 1 0.001 304000 0.0459291 -0.0361981 0
317 317 1 0.001 304000 0.0427007 -0.00556704 0
318 318 1 0.001 304000 -0.0226058 -0.0298418 0
319 319 1 0.001 304000 0.0143616 0.0217487 0
320 320 1 0.001 304000 0.0537858 -0.0542787 0
321 321 1 0.001 304000 0.0328369 0.039532 0
322 322 1 0.001 304000 0.0480274 -0.0377328 0
323 323 1 0.001 304000 -0.0495535 0.0298323 0
324 324 1 0.001 304000 0.00337632 -0.0369128 0
325 325 1 0.001 304000 0.0157196 0.0222795 0
326 326 1 0.001 304000 -0.00832427 0.0287889 0
327 327 1 0.001 304000 -0.0444494 -0.0104305 0
328 328 1 0.001 304000 -0.0461692 0.0179415 0
329 329 1 0.001 304000 -0.0326018 -0.00125254 0
330 330 1 0.001 304000 -0.0364955 -0.0412199 0
331 331 1 0.001 304000 -0.0412841 0.0107775 0
332 332 1 0.001 304000 0.0536199 -0.00530869 0
333 333 1 0.001 304000 0.0510377 0.00663485 0
334 334 1 0.001 304000 -0.0245473 0.0429053 0
335 335 1 0.001 304000 -0.0340342 -0.0269036 0
336 336 1 0.001 304000 0.0523319 -0.0446499 0
337 337 1 0.001 304000 -0.0106422 -0.0120096 0
338 338 1 0.001 304000 0.0170218 -0.0535139 0
339 339 1 0.001 304000 -0.00064123 0.0360651 0
340 340 1 0.001 304000 0.0121418 -0.00648472 0
341 341 1 0.001 304000 0.0153855 -0.000416106 0
342 342 1 0.001 304000 -0.0291132 0.050297 0
343 343 1 0.001 304000 -0.021552 -0.00865265 0
344 344 1 0.001 304000 -0.0388026 -0.0188224 0
345 345 1 0.001 304000 -0.0159584 0.046125 0
346 346 1 0.001 304000 0.000398488 0.0454251 0
347 347 1 0.001 304000 -0.00649443 0.0519939 0
348 348 1 0.001 304000 0.00103483 0.0532444 0
349 349 1 0.001 304000 -0.0426013 0.0200495 0
350 350 1 0.001 304000 -0.0534152 -0.00617373 0
351 351 1 0.001 304000 -0.0163516 0.00426908 0
352 352 1 0.001 304000 -0.0185433 0.0355742 0
353 353 1 0.001 304000 -0.00292138 -0.0244004 0
354 354 1 0.001 304000 0.0212741 0.0100407 0
355 355 1 0.001 304000 0.0191643 0.0402194 0
356 356 1 0.001 304000 0.0436714 0.0471054 0
357 357 1 0.001 304000 -0.0319449 -0.0189389 0
358 358 1 0.001 304000 -0.024991 -0.0146063 0
359 359 1 0.001 304000 0.0164554 0.0439372 0
360 360 1 0.001 304000 -0.00180562 -0.0222275 0
361 361 1 0.001 304000 0.0136733 0.0155963 0
362 362 1 0.001 304000 -0.0135608 0.00532649 0
363 363 1 0.001 304000 0.0239232 -0.0239341 0
364 364 1 0.001 304000 -0.0299218 -0.0161562 0
365 365 1 0.001 304000 -0.0380429 -0.0317923 0
366 366 1 0.001 304000 0.038147 -0.0215575 0
367 367 1 0.001 304000 -0.0277088 -0.0420778 0
368 368 1 0.001 304000 0.0364956 0.0537624 0
369 369 1 0.001 304000 -0.048889 0.0263972 0
370 370 1 0.001 304000 0.0465871 0.0467173 0
371 371 1 0.001 304000 -0.0111949 0.0430723 0
372 372 1 0.001 304000 0.0252765 -0.014402 0
373 373 1 0.001 304000 -0.0524816 0.0105078 0
374 374 1 0.001 304000 0.0424582 0.0444465 0
375 375 1 0.001 304000 0.0510229 0.00392756 0
376 376 1 0.001 304000 -0.0543905 0.00993521 0
377 377 1 0.001 304000 -0.00744405 -0.0170449 0
378 378 1 0.001 304000 0.0530365 0.00159786 0
379 379 1 0.001 304000 -0.0442019 -0.0426618 0
380 380 1 0.001 304000 0.0448048 0.0338366 0
381 381 1 0.001 304000 -0.0210906 -0.0360772 0
382 382 1 0.001 304000 -0.0236654 0.0231502 0
383 383 1 0.001 304000 0.0417341 -0.00244238 0
384 384 1 0.001 304000 -0.0530766 0.0378054 0
385 385 1 0.001 304000 -0.00196545 0.000768061 0
386 386 1 0.001 304000 -0.0101696 -0.035606 0
387 387 1 0.001 304000 -0.0343853 -0.0366296 0
388 388 1 0.001 304000 -0.00523325 0.0431643 0
389 389 1 0.001 304000 0.0129392 0.0292503 0
390 390 1 0.001 304000 -0.0168318 -0.0232661 0
391 391 1 0.001 304000 0.0195254 -0.0215007 0
392 392 1 0.001 304000 0.0273098 0.0353607 0
393 393 1 0.001 304000 0.0206329 -0.0325919 0
394 394 1 0.001 304000 -0.0017496 0.0409172 0
395 395 1 0.001 304000 -0.0339394 0.021169 0
396 396 1 0.001 304000 -0.0190315 0.00208764 0
397 397 1 0.001 304000 0.0395345 -0.0351364 0
398 398 1 0.001 304000 0.0489286 -0.0330274 0
399 399 1 0.001 304000 0.0542801 -0.0129249 0
400 400 1 0.001 304000 -0.0496687 0.0491162 0
401 401 1 0.001 304000 -0.0395983 0.00135925 0
402 402 1 0.001 304000 0.00495549 0.0280935 0
403 403 1 0.001 304000 0.00555609 -0.0331503 0
404 404 1 0.001 304000 0.0132882 0.022907 0
405 405 1 0.001 304000 -0.000861742 0.0466568 0
406 406 1 0.001 304000 -8.70092e-05 0.0442568 0
407 407 1 0.001 304000 0.015289 -0.0276599 0
408 408 1 0.001 304000 -0.0211664 -0.040456 0
409 409 1 0.001 304000 -0.0194863 0.011921 0
410 410 1 0.001 304000 0.0518729 -0.00466715 0
411 411 1 0.001 304000 0.0490184 0.000434874 0
412 412 1 0.001 304000 0.023193 0.0305539 0
413 413 1 0.001 304000 0.0528411 0.0116761 0
414 414 1 0.001 304000 -0.0400814 0.0445868 0
415 415 1 0.001 304000 0.0116753 -0.034253 0
416 416 1 0.001 304000 0.048182 -0.0482993 0
417 417 1 0.001 304000 0.0545118 -0.0322383 0
418 418 1 0.001 304000 0.0418058 0.0499725 0
419 419 1 0.001 304000 -0.0466441 -0.0331045 0
420 420 1 0.001 304000 -0.018692 -0.025872 0
421 421 1 0.001 304000 0.0463803 -0.0251854 0
422 422 1 0.001 304000 0.0499146 0.0407973 0
423 423 1 0.001 304000 -0.0322159 -0.0275625 0
424 424 1 0.001 304000 -0.00119724 -0.0182095 0
425 425 1 0.001 304000 -0.0180744 0.0250186 0
426 426 1 0.001 304000 -0.0276694 0.0492618 0
427 427 1 0.001 304000 -0.0109747 -0.0232396 0
428 428 1 0.001 304000 -0.0217663 0.0325044 0
429 429 1 0.001 304000 -0.04207 0.0407479 0
430 430 1 0.001 304000 -0.0526169 0.0317483 0
431 431 1 0.001 304000 0.0239266 0.0440164 0
432 432 1 0.001 304000 -0.0277399 0.0112915 0
433 433 1 0.001 304000 0.0500816 -0.0126967 0
434 434 1 0.001 304000 0.0545967 0.00178349 0
435 435 1 0.001 304000 0.0121054 0.0424334 0
436 436 1 0.001 304000 0.0167156 0.0425736 0
437 437 1 0.001 304000 -0.045813 -0.0302074 0
438 438 1 0.001 304000 0.0512166 -0.0366019 0
439 439 1 0.001 304000 -0.0305541 0.0124383 0
440 440 1 0.001 304000 0.0465278 0.032968 0
441 441 1 0.001 304000 -0.0184423 0.0491295 0
442 442 1 0.001 304000 0.0506915 -0.0284258 0
443 443 1 0.001 304000 -0.0178381 -0.0383862 0
444 444 1 0.001 304000 -0.00586473 -0.0158991 0
445 445 1 0.001 304000 0.0377955 -0.000883552 0
446 446 1 0.001 304000 0.0140536 -0.0429789 0
447 447 1 0.001 304000 -0.0333506 0.00243131 0
448 448 1 0.001 304000 0.0281075 0.0120903 0
449 449 1 0.001 304000 -0.0227636 -0.0182804 0
450 450 1 0.001 304000 -0.0280365 -0.00558712 0
451 451 1 0.001 304000 0.0213582 -0.0309274 0
452 452 1 0.001 304000 -0.0382539 0.0527677 0
453 453 1 0.001 304000 -0.0532912 -0.00410622 0
454 454 1 0.001 304000 0.00470074 -0.00981855 0
455 455 1 0.001 304000 0.0480607 0.0040761 0
456 456 1 0.001 304000 -0.0253501 -0.0200121 0
457 457 1 0.001 304000 0.0222104 -0.00556812 0
458 458 1 0.001 304000 -0.0374089 0.0535991 0
459 459 1 0.001 304000 0.0402673 0.0463875 0
460 460 1 0.001 304000 -0.0172366 -0.0450713 0
461 461 1 0.001 304000 -0.0232525 -0.00294183 0
462 462 1 0.001 304000 -0.0322857 0.0484353 0
463 463 1 0.001 304000 -0.0506733 0.0334507 0
464 464 1 0.001 304000 0.0333511 -0.0295451 0
465 465 1 0.001 304000 0.032159 0.0355778 0
466 466 1 0.001 304000 -0.0254573 0.00570137 0
467 467 1 0.001 304000 0.0371581 -0.0286379 0
468 468 1 0.001 304000 0.0136747 -0.046425 0
469 469 1 0.001 304000 0.0449542 -0.0548462 0
470 470 1 0.001 304000 -0.00641987 0.0142788 0
471 471 1 0.001 304000 -0.00796859 0.037271 0
472 472 1 0.001 304000 0.00021345 -0.0386544 0
473 473 1 0.001 304000 0.0478158 -0.0183678 0
474 474 1 0.001 304000 -0.0403983 0.0180035 0
475 475 1 0.001 304000 0.00217951 -0.0186711 0
476 476 1 0.001 304000 -0.0511265 -0.0246015 0
477 477 1 0.001 304000 -0.0481603 -0.00336956 0
478 478 1 0.001 304000 -0.0246933 -0.0281076 0
479 479 1 0.001 304000 0.0419359 0.00965703 0
480 480 1 0.001 304000 0.0511481 0.0460265 0
481 481 1 0.001 304000 0.011646 0.0176039 0
482 482 1 0.001 304000 0.00200278 -0.00180385 0
483 483 1 0.001 304000 -0.0418781 -0.00486021 0
484 484 1 0.001 304000 0.0247146 0.0261325 0
485 485 1 0.001 304000 0.0217144 -0.00302002 0
486 486 1 0.001 304000 -0.0348019 -0.0547546 0
487 487 1 0.001 304000 0.021737 0.0358881 0
488 488 1 0.001 304000 0.0118499 0.028548 0
489 489 1 0.001 304000 0.0120453 -0.0394469 0
490 490 1 0.001 304000 0.00116197 0.0513525 0
491 491 1 0.001 304000 0.0167891 -0.000320795 0
492 492 1 0.001 304000 0.0534362 -0.0452994 0
493 493 1 0.001 304000 -0.0461891 0.0409383 0
494 494 1 0.001 304000 0.0080506 -0.0302011 0
495 495 1 0.001 304000 -0.025342 0.0308106 0
496 496 1 0.001 304000 -0.0206932 0.0406499 0
497 497 1 0.001 304000 -0.0314993 -0.0363654 0
498 498 1 0.001 304000 0.0394689 0.0351025 0
499 499 1 0.001 304000 0.0511407 0.038661 0
500 500 1 0.001 304000 0.0474939 -0.0336403 0
501 501 1 0.001 304000 0.0468723 0.0126021 0
502 502 1 0.001 304000 -0.0300151 -0.0291463 0
503 503 1 0.001 304000 0.0275439 0.0517487 0
504 504 1 0.001 304000 0.0226179 -0.0148896 0
505 505 1 0.001 304000 -0.00652274 -0.022649 0
506 506 1 0.001 304000 -0.0478117 -0.0148839 0
507 507 1 0.001 304000 0.00786678 -0.0466825 0
508 508 1 0.001 304000 0.0232876 0.0190248 0
509 509 1 0.001 304000 0.0176614 0.0115027 0
510 510 1 0.001 304000 -0.0220324 0.00181045 0
511 511 1 0.001 304000 -0.0446209 0.0248877 0
512 512 1 0.001 304000 0.04083 -0.0387261 0
513 513 1 0.001 304000 0.0324509 -0.0270407 0
514 514 1 0.001 304000 -0.0521642 -0.0337269 0
515 515 1 0.001 304000 0.00794933 0.0183095 0
516 516 1 0.001 304000 0.0160296 -0.0333228 0
517 517 1 0.001 304000 -0.0252998 -0.00588324 0
518 518 1 0.001 304000 -0.00363047 0.038876 0
519 519 1 0.001 304000 -0.0123257 0.0151291 0
520 520 1 0.001 304000 -0.00126587 -0.00434195 0
521 521 1 0.001 304000 0.0518958 0.0411383 0
522 522 1 0.001 304000 -0.0506917 -0.034071 0
523 523 1 0.001 304000 0.0121461 -0.0246128 0
524 524 1 0.001 304000 -0.0415936 0.00267194 0
525 525 1 0.001 304000 -0.00689209 -0.0107461 0
526 526 1 0.001 304000 -0.0503941 0.0453881 0
527 527 1 0.001 304000 0.0244301 0.0160278 0
528 528 1 0.001 304000 -0.0385461 -0.0459217 0
529 529 1 0.001 304000 -0.0218393 0.0523395 0
530 530 1 0.001 304000 0.0192011 0.00984143 0
531 531 1 0.001 304000 0.0399062 0.0413141 0
532 532 1 0.001 304000 -0.00876896 -0.0282023 0
533 533 1 0.001 304000 0.0437685 -0.00315906 0
534 534 1 0.001 304000 0.0536091 -0.0143186 0
535 535 1 0.001 304000 -0.00362807 -0.00396119 0
536 536 1 0.001 304000 0.00732891 -0.00434724 0
537 537 1 0.001 304000 -0.0544842 -0.0516023 0
538 538 1 0.001 304000 0.0201822 -0.0477709 0
539 539 1 0.001 304000 0.000536341 0.0192996 0
540 540 1 0.001 304000 -0.0309274 0.0215277 0
541 541 1 0.001 304000 -0.00257231 -0.0347833 0
542 542 1 0.001 304000 0.0423426 0.0283171 0
543 543 1 0.001 304000 -0.0082697 0.0481882 0
544 544 1 0.001 304000 0.00632065 0.0458654 0
545 545 1 0.001 304000 -0.0496615 -0.0535421 0
546 546 1 0.001 304000 -0.0270205 0.047604 0
547 547 1 0.001 304000 0.0154793 -0.0467541 0
548 548 1 0.001 304000 0.0255713 -0.0348981 0
549 549 1 0.001 304000 -0.0234693 0.0531577 0
550 550 1 0.001 304000 0.0299695 0.0549741 0
551 551 1 0.001 304000 -0.0198586 0.0232677 0
552 552 1 0.001 304000 -0.0295212 0.0185279 0
553 553 1 0.001 304000 -0.0100149 -0.0484759 0
554 554 1 0.001 304000 0.0508731 -0.0516261 0
555 555 1 0.001 304000 0.016403 0.0514496 0
556 556 1 0.001 304000 0.0544022 0.0342466 0
557 557 1 0.001 304000 -0.0113144 0.0201092 0
558 558 1 0.001 304000 0.0382778 0.048834 0
559 559 1 0.001 304000 -0.00911223 -0.0548268 0
560 560 1 0.001 304000 0.00379781 0.0140476 0
561 561 1 0.001 304000 -0.0174469 -0.0252334 0
562 562 1 0.001 304000 0.0369975 0.00461551 0
563 563 1 0.001 304000 0.0328797 -0.0306112 0
564 564 1 0.001 304000 0.0174287 -0.0237381 0
565 565 1 0.001 304000 -0.0167075 -0.0418299 0
566 566 1 0.001 304000 -0.0410642 -0.0163736 0
567 567 1 0.001 304000 -0.00148678 0.0444498 0
568 568 1 0.001 304000 -0.00240664 -0.00138259 0
569 569 1 0.001 304000 0.00376828 -0.00505664 0
570 570 1 0.001 304000 0.0357453 -0.0528189 0
571 571 1 0.001 304000 0.0167815 -0.0249655 0
572 572 1 0.001 304000 0.0311892 0.0401125 0
573 573 1 0.001 304000 0.0140837 -0.0228691 0
574 574 1 0.001 304000 0.0211426 0.0174988 0
575 575 1 0.001 304000 0.0397094 -0.0281556 0
576 576 1 0.001 304000 -0.0144004 0.0492587 0
577 577 1 0.001 304000 0.0102739 -0.0522377 0
578 578 1 0.001 304000 0.0125867 -0.032474 0
579 579 1 0.001 304000 0.0314276 0.0292672 0
580 580 1 0.001 304000 0.00901718 -0.0410616 0
581 581 1 0.001 304000 -0.0262201 0.0149923 0
582 582 1 0.001 304000 0.0499376 0.019982 0
583 583 1 0.001 304000 -0.00679688 0.0114872 0
584 584 1 0.001 304000 -0.0517041 0.0402666 0
585 585 1 0.001 304000 -0.0284468 0.0093614 0
586 586 1 0.001 304000 0.0404141 -0.0306753 0
587 587 1 0.001 304000 0.0166782 -0.0161668 0
588 588 1 0.001 304000 0.0437444 -0.025213 0
589 589 1 0.001 304000 -0.0207582 0.0100748 0
590 590 1 0.001 304000 0.0358481 0.0131105 0
591 591 1 0.001 304000 -0.0169749 0.0114989 0
592 592 1 0.001 304000 -0.0169376 -0.0036485 0
593 593 1 0.001 304000 -0.0225124 0.0287629 0
594 594 1 0.001 304000 -0.0371299 0.0325777 0
595 595 1 0.001 304000 -0.000962498 -0.0198094 0
596 596 1 0.001 304000 0.0114355 -0.03701 0
597 597 1 0.001 304000 -0.016518 0.00991127 0
598 598 1 0.001 304000 -0.0172474 0.0182619 0
599 599 1 0.001 304000 -0.000799924 -0.0380922 0
600 600 1 0.001 304000 0.0143923 -0.00623794 0
601 601 1 0.001 304000 -0.0235114 -0.0197141 0
602 602 1 0.001 304000 0.00895013 0.0168744 0
603 603 1 0.001 304000 0.0239404 -0.00951979 0
604 604 1 0.001 304000 0.0372819 0.0123862 0
605 605 1 0.001 304000 0.0350391 0.0170268 0
606 606 1 0.001 304000 0.0190257 0.0325144 0
607 607 1 0.001 304000 -0.01643 0.0323424 0
608 608 1 0.001 304000 0.0220811 -0.0533752 0
609 609 1 0.001 304000 0.0407882 -0.0181682 0
610 610 1 0.001 304000 0.0452344 -0.0177212 0
611 611 1 0.001 304000 0.0134623 0.0209211 0
612 612 1 0.001 304000 -0.0501376 0.0407091 0
613 613 1 0.001 304000 -0.0469292 -0.0177858 0
614 614 1 0.001 304000 0.0394725 0.0519147 0
615 615 1 0.001 304000 0.0436946 0.0505097 0
616 616 1 0.001 304000 -0.0343326 0.0523673 0
617 617 1 0.001 304000 -0.0238547 -0.0444125 0
618 618 1 0.001 304000 0.0302705 0.00793625 0
619 619 1 0.001 304000 0.0479507 -0.0195709 0
620 620 1 0.001 304000 0.0243032 0.0501448 0
621 621 1 0.001 304000 0.0149034 -0.00737377 0
622 622 1 0.001 304000 0.00933017 0.0458678 0
623 623 1 0.001 304000 0.0545629 -0.00457911 0
624 624 1 0.001 304000 -0.0383444 0.0127184 0
625 625 1 0.001 304000 -0.0543093 -0.0492561 0
626 626 1 0.001 304000 0.04636 -0.00795686 0
627 627 1 0.001 304000 -0.0543736 -0.0323037 0
628 628 1 0.001 304000 -0.0220499 -0.0143434 0
629 629 1 0.001 304000 -0.0142132 0.0514218 0
630 630 1 0.001 304000 -0.04826 0.0332653 0
631 631 1 0.001 304000 0.0529023 0.00911749 0
632 632 1 0.001 304000 -0.0518322 -0.0307184 0
633 633 1 0.001 304000 0.0150187 0.0471281 0
634 634 1 0.001 304000 0.0528596 0.0482455 0
635 635 1 0.001 304000 -0.0307085 0.0299093 0
636 636 1 0.001 304000 0.0191374 0.00841021 0
637 637 1 0.001 304000 0.00222957 0.0367087 0
638 638 1 0.001 304000 0.0309166 -0.0130703 0
639 639 1 0.001 304000 -0.0380775 -0.0108084 0
640 640 1 0.001 304000 -0.0229425 0.0473831 0
641 641 1 0.001 304000 -0.0525414 0.0446311 0
642 642 1 0.001 304000 -0.0195107 0.0309949 0
643 643 1 0.001 304000 0.0326949 0.0143247 0
644 644 1 0.001 304000 -0.0210621 0.0251583 0
645 645 1 0.001 304000 -0.0304761 0.0533866 0
646 646 1 0.001 304000 0.000177757 0.0151177 0
647 647 1 0.001 304000 -0.0434862 0.0036661 0
648 648 1 0.001 304000 -0.02517 0.0167541 0
649 649 1 0.001 304000 -0.0377274 -0.019408 0
650 650 1 0.001 304000 0.0192672 0.0516373 0
651 651 1 0.001 304000 -0.0102509 0.0436682 0