Non-intersecting ant raft

4688 atoms
1 atom types
1 bond types
-0.075 0.075 xlo xhi
-0.05 0.05 ylo yhi
-0.0075 0.0075 zlo zhi

Atoms

1 1 1 0.001 304000 0.0384713 -0.0429264 0
2 2 1 0.001 304000 0.0225024 0.0303405 0
3 3 1 0.001 304000 0.0373374 -0.0116045 0
4 4 1 0.001 304000 0.00400667 0.014834 0
5 5 1 0.001 304000 -0.0496243 -0.00852641 0
6 6 1 0.001 304000 -0.00745854 -0.0417194 0
7 7 1 0.001 304000 0.0321241 -0.02572 0
8 8 1 0.001 304000 -0.0380594 0.0119554 0
9 9 1 0.001 304000 -0.0101732 0.0424146 0
10 10 1 0.001 304000 0.0669075 -0.00307976 0
11 11 1 0.001 304000 -0.0418751 -0.0434011 0
12 12 1 0.001 304000 0.0555141 -0.00688237 0
13 13 1 0.001 304000 0.0045914 0.0488098 0
14 14 1 0.001 304000 0.0244316 0.0337818 0
15 15 1 0.001 304000 -0.0441427 0.0188785 0
16 16 1 0.001 304000 -0.00427997 0.0334351 0
17 17 1 0.001 304000 -0.0152973 0.0237029 0
18 18 1 0.001 304000 -0.0231119 -0.0189215 0
19 19 1 0.001 304000 -0.0372227 0.00494584 0
20 20 1 0.001 304000 0.0624268 0.0271023 0
21 21 1 0.001 304000 -0.0620006 0.0347622 0
22 22 1 0.001 304000 -0.0488725 -0.00383424 0
23 23 1 0.001 304000 -0.0744202 0.0421824 0
24 24 1 0.001 304000 0.00859826 0.0393347 0
25 25 1 0.001 304000 -0.0692847 0.0495366 0
26 26 1 0.001 304000 -0.0412366 -0.0317303 0
27 27 1 0.001 304000 -0.0553042 0.0415564 0
28 28 1 0.001 304000 0.0150326 0.024013 0
29 29 1 0.001 304000 -0.0450103 0.00685862 0
30 30 1 0.001 304000 -0.0615971 0.0318153 0
31 31 1 0.001 304000 0.0354296 0.0354461 0
32 32 1 0.001 304000 0.0545897 -0.0369292 0
33 33 1 0.001 304000 -0.0119557 -0.00498602 0
34 34 1 0.001 304000 0.0532568 -0.0353031 0
35 35 1 0.001 304000 -0.0183083 0.0149048 0
36 36 1 0.001 304000 -0.00198743 0.0098192 0
37 37 1 0.001 304000 0.063605 0.0260084 0
38 38 1 0.001 304000 0.0565022 0.0316092 0
39 39 1 0.001 304000 0.0390071 0.00827329 0
40 40 1 0.001 304000 0.0675518 -0.0402716 0
41 41 1 0.001 304000 -0.0667181 0.000913591 0
42 42 1 0.001 304000 0.0016121 0.0162281 0
43 43 1 0.001 304000 -0.0600081 0.0130753 0
44 44 1 0.001 304000 0.0583196 -0.0280252 0
45 45 1 0.001 304000 0.0165392 0.0258309 0
46 46 1 0.001 304000 0.0144132 0.0403545 0
47 47 1 0.001 304000 0.055204 -0.0442051 0
48 48 1 0.001 304000 -0.0684202 -0.00752086 0
49 49 1 0.001 304000 0.0660331 0.026522 0
50 50 1 0.001 304000 0.0220262 -0.0321194 0
51 51 1 0.001 304000 0.0726895 0.0456976 0
52 52 1 0.001 304000 0.0496515 -0.0149115 0
53 53 1 0.001 304000 -0.0347584 -0.0147746 0
54 54 1 0.001 304000 0.00736144 -0.00470089 0
55 55 1 0.001 304000 0.0305519 -0.0244693 0
56 56 1 0.001 304000 0.0466567 -0.0186775 0
57 57 1 0.001 304000 0.0474733 0.0131515 0
58 58 1 0.001 304000 -0.0188428 -0.0280227 0
59 59 1 0.001 304000 0.0628311 -0.0429386 0
60 60 1 0.001 304000 -0.0413569 0.00132084 0
61 61 1 0.001 304000 0.00962121 0.00532163 0
62 62 1 0.001 304000 0.0290476 -0.000850866 0
63 63 1 0.001 304000 -0.00161573 -0.0317628 0
64 64 1 0.001 304000 -0.0442247 -0.0144318 0
65 65 1 0.001 304000 0.0182086 -0.031158 0
66 66 1 0.001 304000 -0.00492384 0.0149273 0
67 67 1 0.001 304000 -0.0658502 -0.0375943 0
68 68 1 0.001 304000 -0.00752345 -0.0122475 0
69 69 1 0.001 304000 -0.0130567 0.0292258 0
70 70 1 0.001 304000 0.0298131 0.00290767 0
71 71 1 0.001 304000 0.0404268 -0.0344309 0
72 72 1 0.001 304000 0.0457854 0.0274078 0
73 73 1 0.001 304000 0.0493938 0.0272336 0
74 74 1 0.001 304000 0.0096452 0.0188898 0
75 75 1 0.001 304000 -0.0635069 0.00697926 0
76 76 1 0.001 304000 0.0472776 -0.0404881 0
77 77 1 0.001 304000 -0.0719623 0.006113 0
78 78 1 0.001 304000 0.0583321 0.0241935 0
79 79 1 0.001 304000 0.013692 -0.00948961 0
80 80 1 0.001 304000 0.0356682 -0.0102843 0
81 81 1 0.001 304000 -0.0316824 0.0278253 0
82 82 1 0.001 304000 0.0573874 0.0203324 0
83 83 1 0.001 304000 0.0271833 0.00758332 0
84 84 1 0.001 304000 -0.00117874 0.0414484 0
85 85 1 0.001 304000 0.0356277 -0.0301015 0
86 86 1 0.001 304000 0.070617 -0.0428854 0
87 87 1 0.001 304000 -0.0345496 0.0011391 0
88 88 1 0.001 304000 -0.0117788 0.0262716 0
89 89 1 0.001 304000 0.00617268 -0.0463089 0
90 90 1 0.001 304000 -0.00702086 -0.00211358 0
91 91 1 0.001 304000 0.0402608 0.00111023 0
92 92 1 0.001 304000 -0.018609 -0.0179136 0
93 93 1 0.001 304000 0.0156727 0.0132563 0
94 94 1 0.001 304000 -0.0731973 0.0462261 0
95 95 1 0.001 304000 -0.0577752 -0.0413287 0
96 96 1 0.001 304000 -0.0444276 0.0401288 0
97 97 1 0.001 304000 0.0357193 0.0164643 0
98 98 1 0.001 304000 -0.0269592 0.0363447 0
99 99 1 0.001 304000 -0.0331841 0.0393238 0
100 100 1 0.001 304000 -0.0230636 0.000582606 0
101 101 1 0.001 304000 -0.0418578 -0.0215037 0
102 102 1 0.001 304000 -0.0605581 -0.0390923 0
103 103 1 0.001 304000 0.0248755 -0.0198746 0
104 104 1 0.001 304000 0.0453285 0.0469459 0
105 105 1 0.001 304000 -0.0366111 -2.24356e-06 0
106 106 1 0.001 304000 0.00301168 -0.0404722 0
107 107 1 0.001 304000 -0.01648 -0.0117666 0
108 108 1 0.001 304000 -0.0539163 -0.0305489 0
109 109 1 0.001 304000 -0.0115082 0.0317078 0
110 110 1 0.001 304000 0.0390102 -0.0386512 0
111 111 1 0.001 304000 0.0706989 0.00100986 0
112 112 1 0.001 304000 0.0498109 -0.0478681 0
113 113 1 0.001 304000 -0.0319042 -4.71624e-05 0
114 114 1 0.001 304000 0.00433674 0.0440381 0
115 115 1 0.001 304000 -0.0272958 0.0457569 0
116 116 1 0.001 304000 0.0642832 -0.00216498 0
117 117 1 0.001 304000 0.0604905 -0.0318149 0
118 118 1 0.001 304000 -0.0476321 -0.022244 0
119 119 1 0.001 304000 0.0525202 -0.0159605 0
120 120 1 0.001 304000 -0.00278924 -0.0472975 0
121 121 1 0.001 304000 -0.0223487 -0.0300331 0
122 122 1 0.001 304000 0.00693034 0.00676085 0
123 123 1 0.001 304000 -0.0487971 0.041653 0
124 124 1 0.001 304000 0.0550243 0.0326611 0
125 125 1 0.001 304000 0.0163593 -0.033138 0
126 126 1 0.001 304000 -0.0455047 0.0439529 0
127 127 1 0.001 304000 0.0151113 -0.00268758 0
128 128 1 0.001 304000 0.0124801 -0.015686 0
129 129 1 0.001 304000 -0.019196 0.0208016 0
130 130 1 0.001 304000 0.0102523 0.0484513 0
131 131 1 0.001 304000 -0.0726096 0.0332832 0
132 132 1 0.001 304000 0.0590675 0.012759 0
133 133 1 0.001 304000 0.0452822 0.00103124 0
134 134 1 0.001 304000 0.024076 -0.045163 0
135 135 1 0.001 304000 -0.0630498 0.0447323 0
136 136 1 0.001 304000 -0.0356787 0.0230881 0
137 137 1 0.001 304000 0.0115747 -0.00478709 0
138 138 1 0.001 304000 -0.0664105 0.00822559 0
139 139 1 0.001 304000 -0.0724579 0.0198545 0
140 140 1 0.001 304000 -0.0301648 -0.0166339 0
141 141 1 0.001 304000 -0.00586897 -0.0198106 0
142 142 1 0.001 304000 -0.0249792 0.0321868 0
143 143 1 0.001 304000 0.0557978 -0.049908 0
144 144 1 0.001 304000 0.0493318 0.0467399 0
145 145 1 0.001 304000 -0.00917997 -0.0381867 0
146 146 1 0.001 304000 0.0196625 0.00392741 0
147 147 1 0.001 304000 -0.0533284 -0.0144765 0
148 148 1 0.001 304000 0.0185592 0.0309076 0
149 149 1 0.001 304000 0.0107621 0.00179779 0
150 150 1 0.001 304000 0.0569083 -0.00895075 0
151 151 1 0.001 304000 0.0410718 0.0115381 0
152 152 1 0.001 304000 -0.012448 0.0248194 0
153 153 1 0.001 304000 0.0314339 -0.0117091 0
154 154 1 0.001 304000 0.0352079 -0.0324376 0
155 155 1 0.001 304000 -0.0723995 -0.0230249 0
156 156 1 0.001 304000 0.0234184 -0.00840693 0
157 157 1 0.001 304000 0.0588346 -0.0406308 0
158 158 1 0.001 304000 -0.0569481 -0.0317761 0
159 159 1 0.001 304000 0.0716231 0.00747407 0
160 160 1 0.001 304000 0.0280922 0.0338515 0
161 161 1 0.001 304000 0.0481851 0.00771143 0
162 162 1 0.001 304000 0.0608656 -0.00985237 0
163 163 1 0.001 304000 0.00436136 -0.0195949 0
164 164 1 0.001 304000 -0.0299832 -0.0138531 0
165 165 1 0.001 304000 0.0699594 0.0431194 0
166 166 1 0.001 304000 0.02706 -0.00308643 0
167 167 1 0.001 304000 -0.0231669 0.00923808 0
168 168 1 0.001 304000 -0.0702974 -0.00313339 0
169 169 1 0.001 304000 0.0262281 0.0394371 0
170 170 1 0.001 304000 -0.0166438 -0.0278802 0
171 171 1 0.001 304000 0.0114821 0.0409177 0
172 172 1 0.001 304000 0.0328492 0.00599149 0
173 173 1 0.001 304000 -0.00407141 0.00425756 0
174 174 1 0.001 304000 -0.0563057 -0.00180521 0
175 175 1 0.001 304000 -0.0665434 -0.0137709 0
176 176 1 0.001 304000 -0.0686541 0.0259293 0
177 177 1 0.001 304000 -0.0264183 0.0210935 0
178 178 1 0.001 304000 -0.0257712 -0.019514 0
179 179 1 0.001 304000 0.0648011 0.024521 0
180 180 1 0.001 304000 0.041394 -0.0167833 0
181 181 1 0.001 304000 -0.0516588 0.0155538 0
182 182 1 0.001 304000 -0.0420779 -0.0175332 0
183 183 1 0.001 304000 0.0739927 -0.010217 0
184 184 1 0.001 304000 0.0169843 -0.0415991 0
185 185 1 0.001 304000 0.0748273 0.00375508 0
186 186 1 0.001 304000 0.0113476 0.00390836 0
187 187 1 0.001 304000 -0.040524 0.0177528 0
188 188 1 0.001 304000 -0.0427109 0.00286428 0
189 189 1 0.001 304000 0.0696356 0.0324126 0
190 190 1 0.001 304000 -0.0332637 0.0026514 0
191 191 1 0.001 304000 0.0520918 0.0158875 0
192 192 1 0.001 304000 -0.0161084 0.0308255 0
193 193 1 0.001 304000 -0.035764 0.025715 0
194 194 1 0.001 304000 -0.0626137 0.0230938 0
195 195 1 0.001 304000 -0.039825 0.0311338 0
196 196 1 0.001 304000 0.0318753 0.0408887 0
197 197 1 0.001 304000 -0.0114314 -0.0183363 0
198 198 1 0.001 304000 -0.00698897 0.00742712 0
199 199 1 0.001 304000 -0.0216664 -0.0147618 0
200 200 1 0.001 304000 -0.0268525 -0.0135787 0
201 201 1 0.001 304000 -0.0667761 0.0291065 0
202 202 1 0.001 304000 -0.0313923 0.0263769 0
203 203 1 0.001 304000 0.0570906 -0.0107304 0
204 204 1 0.001 304000 0.00747935 0.00412745 0
205 205 1 0.001 304000 -0.0242917 -0.0270286 0
206 206 1 0.001 304000 0.0224673 -0.016201 0
207 207 1 0.001 304000 0.0125762 -0.0341929 0
208 208 1 0.001 304000 -0.0499375 0.0243559 0
209 209 1 0.001 304000 -0.0170191 -0.00822492 0
210 210 1 0.001 304000 -0.0061109 -0.0369941 0
211 211 1 0.001 304000 0.0352831 0.0181926 0
212 212 1 0.001 304000 0.0571178 -0.0439829 0
213 213 1 0.001 304000 -0.0218328 0.00205368 0
214 214 1 0.001 304000 -0.0208975 -0.00447161 0
215 215 1 0.001 304000 -0.033157 -0.00224953 0
216 216 1 0.001 304000 -0.0740557 0.0281323 0
217 217 1 0.001 304000 0.0591303 0.0390303 0
218 218 1 0.001 304000 0.0654613 0.009542 0
219 219 1 0.001 304000 0.00774406 0.0134184 0
220 220 1 0.001 304000 -0.0395257 -0.0127896 0
221 221 1 0.001 304000 -0.0709111 0.0307972 0
222 222 1 0.001 304000 0.0541689 -0.0196266 0
223 223 1 0.001 304000 0.060927 -0.00254044 0
224 224 1 0.001 304000 -0.00455163 -0.036114 0
225 225 1 0.001 304000 0.002272 0.0106544 0
226 226 1 0.001 304000 -0.0257147 -0.0241258 0
227 227 1 0.001 304000 -0.00300787 0.0152287 0
228 228 1 0.001 304000 0.0525004 -0.00860921 0
229 229 1 0.001 304000 0.0356782 0.0455546 0
230 230 1 0.001 304000 -0.03824 0.0257215 0
231 231 1 0.001 304000 0.00863965 -0.0187796 0
232 232 1 0.001 304000 0.0211158 -0.023634 0
233 233 1 0.001 304000 0.0157939 -0.0183416 0
234 234 1 0.001 304000 -0.0306071 0.00576946 0
235 235 1 0.001 304000 0.0720634 0.0169142 0
236 236 1 0.001 304000 0.0113536 0.022973 0
237 237 1 0.001 304000 0.0454419 -0.0321721 0
238 238 1 0.001 304000 0.0105118 -0.0387771 0
239 239 1 0.001 304000 0.0163226 -0.0269114 0
240 240 1 0.001 304000 0.0154813 -0.0308514 0
241 241 1 0.001 304000 0.0425972 -0.0290407 0
242 242 1 0.001 304000 -0.0673956 0.0172435 0
243 243 1 0.001 304000 -0.0256897 0.0061355 0
244 244 1 0.001 304000 -0.0500251 -0.0268854 0
245 245 1 0.001 304000 0.049912 -0.036198 0
246 246 1 0.001 304000 -0.0734808 -0.00144235 0
247 247 1 0.001 304000 -0.0576422 -0.00880261 0
248 248 1 0.001 304000 0.0517871 0.0300137 0
249 249 1 0.001 304000 0.0139568 -0.0248706 0
250 250 1 0.001 304000 -0.0488376 -0.0289963 0
251 251 1 0.001 304000 0.0615074 0.0388294 0
252 252 1 0.001 304000 0.0545561 -0.0178652 0
253 253 1 0.001 304000 0.000723447 0.031029 0
254 254 1 0.001 304000 0.000749126 0.0352392 0
255 255 1 0.001 304000 0.0667539 -0.0350713 0
256 256 1 0.001 304000 -0.00908393 -0.0429609 0
257 257 1 0.001 304000 -0.0295001 -0.0082791 0
258 258 1 0.001 304000 -0.0473096 -0.0379014 0
259 259 1 0.001 304000 -0.0733367 0.0499478 0
260 260 1 0.001 304000 -0.0548158 -0.0112566 0
261 261 1 0.001 304000 0.00307149 -0.0301348 0
262 262 1 0.001 304000 -0.0601279 -0.00746612 0
263 263 1 0.001 304000 -0.0517767 -0.023864 0
264 264 1 0.001 304000 -0.0249624 0.0416517 0
265 265 1 0.001 304000 -0.018894 -0.0160945 0
266 266 1 0.001 304000 -0.0344628 -0.0390752 0
267 267 1 0.001 304000 -0.0723455 -0.0269029 0
268 268 1 0.001 304000 -0.012217 -0.0428313 0
269 269 1 0.001 304000 -0.0120136 0.0483017 0
270 270 1 0.001 304000 0.0568711 -0.0362711 0
271 271 1 0.001 304000 0.00235552 -0.0344856 0
272 272 1 0.001 304000 0.0435892 -0.00522913 0
273 273 1 0.001 304000 -0.0194825 0.0468009 0
274 274 1 0.001 304000 -0.017207 0.0137589 0
275 275 1 0.001 304000 0.0675701 0.001043 0
276 276 1 0.001 304000 0.0461234 0.0376916 0
277 277 1 0.001 304000 0.0441759 0.0353485 0
278 278 1 0.001 304000 0.0466392 0.0457348 0
279 279 1 0.001 304000 -0.0202797 0.0218133 0
280 280 1 0.001 304000 0.000132598 -0.00358011 0
281 281 1 0.001 304000 0.00822253 0.0376068 0
282 282 1 0.001 304000 -0.0560891 0.0229706 0
283 283 1 0.001 304000 -0.0210468 0.0082971 0
284 284 1 0.001 304000 0.0441037 -0.0447933 0
285 285 1 0.001 304000 0.0536938 0.033354 0
286 286 1 0.001 304000 -0.0181438 -0.00737098 0
287 287 1 0.001 304000 0.0671883 -0.0431201 0
288 288 1 0.001 304000 -0.0342993 -0.0237842 0
289 289 1 0.001 304000 0.0654893 -0.0360441 0
290 290 1 0.001 304000 -0.0651608 -0.0484398 0
291 291 1 0.001 304000 -0.0538408 -0.0285559 0
292 292 1 0.001 304000 -0.00200661 0.0322398 0
293 293 1 0.001 304000 0.0152116 0.0366069 0
294 294 1 0.001 304000 0.0298041 0.0204466 0
295 295 1 0.001 304000 0.0250596 0.00329318 0
296 296 1 0.001 304000 -0.0222298 0.0474772 0
297 297 1 0.001 304000 -0.051331 -0.00590325 0
298 298 1 0.001 304000 -0.053115 0.0152121 0
299 299 1 0.001 304000 0.008096 0.0445761 0
300 300 1 0.001 304000 0.0484339 -0.0162808 0
301 301 1 0.001 304000 0.0253757 -0.0398486 0
302 302 1 0.001 304000 0.0572767 -0.0488418 0
303 303 1 0.001 304000 -0.0749237 0.0212151 0
304 304 1 0.001 304000 0.0128216 0.00351601 0
305 305 1 0.001 304000 -0.0395936 -0.0318204 0
306 306 1 0.001 304000 0.0599668 0.0321883 0
307 307 1 0.001 304000 0.0210548 0.0443295 0
308 308 1 0.001 304000 0.0486496 0.0291053 0
309 309 1 0.001 304000 -0.060773 -0.0175391 0
310 310 1 0.001 304000 0.00472977 -0.0412132 0
311 311 1 0.001 304000 0.0593983 -0.0245546 0
312 312 1 0.001 304000 -0.0354401 -0.00618614 0
313 313 1 0.001 304000 0.0473709 -0.00972114 0
314 314 1 0.001 304000 0.0300095 0.0365877 0
315 315 1 0.001 304000 0.0431098 -0.0394942 0
316 316 1 0.001 304000 0.0669368 0.00582779 0
317 317 1 0.001 304000 0.0730075 -0.0397191 0
318 318 1 0.001 304000 0.0455013 0.0406629 0
319 319 1 0.001 304000 0.028895 0.00439423 0
320 320 1 0.001 304000 0.0597496 -0.049539 0
321 321 1 0.001 304000 0.0251861 0.0202653 0
322 322 1 0.001 304000 0.0656932 0.0201756 0
323 323 1 0.001 304000 0.0680473 -0.000542814 0
324 324 1 0.001 304000 0.0615163 0.0419138 0
325 325 1 0.001 304000 -0.0415861 -0.0405135 0
326 326 1 0.001 304000 -0.00506579 0.0390846 0
327 327 1 0.001 304000 -0.0488713 0.0161902 0
328 328 1 0.001 304000 -0.0251874 -0.0103468 0
329 329 1 0.001 304000 -0.00391537 -0.0229709 0
330 330 1 0.001 304000 -0.031088 -0.0281377 0
331 331 1 0.001 304000 0.0318035 -0.0192532 0
332 332 1 0.001 304000 -0.00850048 0.0103479 0
333 333 1 0.001 304000 0.0657614 -0.0280176 0
334 334 1 0.001 304000 0.0243624 -0.0107866 0
335 335 1 0.001 304000 -0.0361881 0.0395187 0
336 336 1 0.001 304000 0.0558167 -0.00495401 0
337 337 1 0.001 304000 0.00221559 -0.0390476 0
338 338 1 0.001 304000 -0.044844 -0.0234341 0
339 339 1 0.001 304000 0.0673002 0.0427115 0
340 340 1 0.001 304000 0.0617209 -0.0298351 0
341 341 1 0.001 304000 -0.0664512 -0.0183716 0
342 342 1 0.001 304000 0.0551876 -0.0222725 0
343 343 1 0.001 304000 -0.0211077 0.0171186 0
344 344 1 0.001 304000 -0.0230718 -0.0249131 0
345 345 1 0.001 304000 -0.0124779 -0.0240032 0
346 346 1 0.001 304000 0.039776 -0.0234958 0
347 347 1 0.001 304000 -0.0705898 -0.036693 0
348 348 1 0.001 304000 0.0620648 0.0133563 0
349 349 1 0.001 304000 0.0196202 -0.0185028 0
350 350 1 0.001 304000 -0.0146912 -0.0289364 0
351 351 1 0.001 304000 0.0198521 0.0293972 0
352 352 1 0.001 304000 0.062 -0.0271934 0
353 353 1 0.001 304000 0.0441488 0.0111728 0
354 354 1 0.001 304000 -0.00776678 0.0271047 0
355 355 1 0.001 304000 0.0522232 -0.0281932 0
356 356 1 0.001 304000 0.0599091 0.0205934 0
357 357 1 0.001 304000 0.039394 -0.00308723 0
358 358 1 0.001 304000 0.0612752 0.00946846 0
359 359 1 0.001 304000 -0.0426642 0.020843 0
360 360 1 0.001 304000 -0.01553 -0.0464423 0
361 361 1 0.001 304000 0.0101273 -0.0194752 0
362 362 1 0.001 304000 -0.0387149 0.00673577 0
363 363 1 0.001 304000 -0.0233247 0.0390245 0
364 364 1 0.001 304000 -0.065064 0.0312539 0
365 365 1 0.001 304000 0.00185943 -0.0268958 0
366 366 1 0.001 304000 0.015599 0.0227061 0
367 367 1 0.001 304000 0.0694148 -0.0173295 0
368 368 1 0.001 304000 -0.0164786 0.0440597 0
369 369 1 0.001 304000 0.0276283 -0.0272722 0
370 370 1 0.001 304000 -0.0294649 0.0374668 0
371 371 1 0.001 304000 0.0554773 0.0407648 0
372 372 1 0.001 304000 0.073827 0.00768906 0
373 373 1 0.001 304000 -0.023336 -0.0222923 0
374 374 1 0.001 304000 -0.019765 0.03735 0
375 375 1 0.001 304000 0.0455627 0.018252 0
376 376 1 0.001 304000 0.0275357 0.0282437 0
377 377 1 0.001 304000 0.0373437 -0.0392922 0
378 378 1 0.001 304000 -0.0304835 -0.00557379 0
379 379 1 0.001 304000 0.063398 -0.04138 0
380 380 1 0.001 304000 -0.0183746 -0.0487935 0
381 381 1 0.001 304000 0.0494352 0.0242208 0
382 382 1 0.001 304000 0.0154801 0.0426005 0
383 383 1 0.001 304000 -0.0276144 0.00976117 0
384 384 1 0.001 304000 -0.0724253 0.0097816 0
385 385 1 0.001 304000 -0.0181008 0.034563 0
386 386 1 0.001 304000 0.0177982 0.0338866 0
387 387 1 0.001 304000 -0.0387169 -0.0371111 0
388 388 1 0.001 304000 0.0223835 -0.0185536 0
389 389 1 0.001 304000 0.0308777 -0.00306293 0
390 390 1 0.001 304000 0.0210591 -0.00583192 0
391 391 1 0.001 304000 -0.0363818 0.00756652 0
392 392 1 0.001 304000 0.0105966 0.0375127 0
393 393 1 0.001 304000 0.0713349 0.0209815 0
394 394 1 0.001 304000 0.0273719 -0.015369 0
395 395 1 0.001 304000 -0.0685404 -0.0435731 0
396 396 1 0.001 304000 0.00631705 0.0259522 0
397 397 1 0.001 304000 -0.0395847 -0.0259327 0
398 398 1 0.001 304000 -0.0360972 -0.0243688 0
399 399 1 0.001 304000 0.0591119 -0.018156 0
400 400 1 0.001 304000 0.00551091 0.0287837 0
401 401 1 0.001 304000 0.0487485 0.033643 0
402 402 1 0.001 304000 -0.0248981 -0.0394389 0
403 403 1 0.001 304000 -0.00248373 -0.0202702 0
404 404 1 0.001 304000 0.0519614 -0.0453457 0
405 405 1 0.001 304000 -0.00613261 -0.0179734 0
406 406 1 0.001 304000 0.0695155 -0.0309204 0
407 407 1 0.001 304000 -0.0372928 0.0379813 0
408 408 1 0.001 304000 -0.00375677 0.0174166 0
409 409 1 0.001 304000 -0.00696742 0.0101119 0
410 410 1 0.001 304000 0.012736 0.0319262 0
411 411 1 0.001 304000 0.036692 0.0479464 0
412 412 1 0.001 304000 -0.0635513 -0.01537 0
413 413 1 0.001 304000 -0.064892 0.0336488 0
414 414 1 0.001 304000 -0.0631646 -0.0294658 0
415 415 1 0.001 304000 -0.0116091 0.00599644 0
416 416 1 0.001 304000 0.0363579 -0.0251946 0
417 417 1 0.001 304000 0.0406996 0.0435813 0
418 418 1 0.001 304000 -0.0400994 -0.0171202 0
419 419 1 0.001 304000 -0.0322819 -0.0142061 0
420 420 1 0.001 304000 0.0121428 0.0109238 0
421 421 1 0.001 304000 -0.047421 0.0182572 0
422 422 1 0.001 304000 -0.047181 -0.0289074 0
423 423 1 0.001 304000 -0.0528396 -0.000563662 0
424 424 1 0.001 304000 -0.0203492 -0.0450894 0
425 425 1 0.001 304000 -0.0550125 -0.0131189 0
426 426 1 0.001 304000 0.021739 -0.0497003 0
427 427 1 0.001 304000 0.0413743 -0.0152451 0
428 428 1 0.001 304000 -0.0157486 0.0112755 0
429 429 1 0.001 304000 0.0536719 0.0474865 0
430 430 1 0.001 304000 -0.0338663 0.0129637 0
431 431 1 0.001 304000 -0.0686076 0.0234678 0
432 432 1 0.001 304000 -0.0636871 0.027623 0
433 433 1 0.001 304000 0.0189654 0.04125 0
434 434 1 0.001 304000 -0.0210175 0.0319383 0
435 435 1 0.001 304000 0.0682423 -0.0223173 0
436 436 1 0.001 304000 0.0174197 -0.0127347 0
437 437 1 0.001 304000 0.0717525 -0.041057 0
438 438 1 0.001 304000 -0.0469669 0.0116694 0
439 439 1 0.001 304000 -0.00450776 0.022493 0
440 440 1 0.001 304000 0.0377057 0.00483612 0
441 441 1 0.001 304000 0.0408431 -0.030445 0
442 442 1 0.001 304000 -0.00534963 0.0412923 0
443 443 1 0.001 304000 -0.0453137 -0.0489145 0
444 444 1 0.001 304000 0.0649581 -0.0439398 0
445 445 1 0.001 304000 0.0722734 -0.0183839 0
446 446 1 0.001 304000 -0.0425605 -0.00341376 0
447 447 1 0.001 304000 -0.0578039 -0.0399005 0
448 448 1 0.001 304000 -0.0188906 0.0362131 0
449 449 1 0.001 304000 0.0423298 0.0317859 0
450 450 1 0.001 304000 0.068727 0.0393058 0
451 451 1 0.001 304000 -0.0174665 -0.0439661 0
452 452 1 0.001 304000 0.0218316 0.00893709 0
453 453 1 0.001 304000 -0.0726524 -0.0445579 0
454 454 1 0.001 304000 -0.0264967 -0.0488302 0
455 455 1 0.001 304000 -0.0400247 0.0163301 0
456 456 1 0.001 304000 -0.0243573 0.0255835 0
457 457 1 0.001 304000 0.0306739 -0.0180178 0
458 458 1 0.001 304000 -0.00417702 0.00884065 0
459 459 1 0.001 304000 -0.0153957 -0.025052 0
460 460 1 0.001 304000 -0.0125356 -0.00118199 0
461 461 1 0.001 304000 0.0626111 -0.021957 0
462 462 1 0.001 304000 -0.0744234 0.0145466 0
463 463 1 0.001 304000 -0.0706888 0.0153551 0
464 464 1 0.001 304000 -0.0579816 0.00453051 0
465 465 1 0.001 304000 0.0129859 0.0282268 0
466 466 1 0.001 304000 0.0561518 0.0191085 0
467 467 1 0.001 304000 -0.0339157 -0.0282872 0
468 468 1 0.001 304000 -0.0290681 0.0490198 0
469 469 1 0.001 304000 -0.051482 -0.0422332 0
470 470 1 0.001 304000 -0.0406431 0.045734 0
471 471 1 0.001 304000 0.0182721 -0.020434 0
472 472 1 0.001 304000 -0.034427 0.0275723 0
473 473 1 0.001 304000 0.0346418 -0.0173031 0
474 474 1 0.001 304000 0.00337617 -0.0123716 0
475 475 1 0.001 304000 0.0395333 0.0322876 0
476 476 1 0.001 304000 -0.0651717 0.0392111 0
477 477 1 0.001 304000 0.0476659 0.0400905 0
478 478 1 0.001 304000 -0.0593837 0.040091 0
479 479 1 0.001 304000 0.0683752 -0.00572952 0
480 480 1 0.001 304000 0.0481526 0.0161044 0
481 481 1 0.001 304000 0.0434782 -0.00101525 0
482 482 1 0.001 304000 -0.0609546 -0.0128924 0
483 483 1 0.001 304000 0.0597699 0.0109145 0
484 484 1 0.001 304000 0.0102418 -0.049756 0
485 485 1 0.001 304000 -0.0467404 0.00143483 0
486 486 1 0.001 304000 -0.0591672 0.0362453 0
487 487 1 0.001 304000 -0.0626241 -0.0213574 0
488 488 1 0.001 304000 -0.0654041 0.0375226 0
489 489 1 0.001 304000 -0.0499728 0.0101718 0
490 490 1 0.001 304000 -0.0374733 -0.0335221 0
491 491 1 0.001 304000 0.0266309 -0.00522616 0
492 492 1 0.001 304000 -0.0718694 -0.00493085 0
493 493 1 0.001 304000 0.0254365 -0.0119472 0
494 494 1 0.001 304000 0.0209045 -0.025651 0
495 495 1 0.001 304000 0.0129149 0.00076549 0
496 496 1 0.001 304000 -0.0292115 -0.0472734 0
497 497 1 0.001 304000 0.0258368 -0.0337803 0
498 498 1 0.001 304000 -0.0358608 -0.0454174 0
499 499 1 0.001 304000 0.0702116 0.0143131 0
500 500 1 0.001 304000 -0.0243981 0.0218498 0
501 501 1 0.001 304000 0.0404425 -0.0211129 0
502 502 1 0.001 304000 -0.0186859 -0.00906087 0
503 503 1 0.001 304000 -0.0240657 0.0452445 0
504 504 1 0.001 304000 0.0226823 0.00486594 0
505 505 1 0.001 304000 0.0388643 -0.0215045 0
506 506 1 0.001 304000 -0.0534273 0.0218492 0
507 507 1 0.001 304000 -0.0346576 0.0362237 0
508 508 1 0.001 304000 -0.0505084 0.0361398 0
509 509 1 0.001 304000 -0.0132314 0.0133843 0
510 510 1 0.001 304000 -0.0460139 -0.000378079 0
511 511 1 0.001 304000 0.00156085 -0.0377049 0
512 512 1 0.001 304000 -0.0695295 0.0457702 0
513 513 1 0.001 304000 -0.025068 -0.00864396 0
514 514 1 0.001 304000 -0.0262669 0.0138978 0
515 515 1 0.001 304000 -0.0180418 -0.0311151 0
516 516 1 0.001 304000 0.0721114 0.0416126 0
517 517 1 0.001 304000 -0.0712203 -0.015135 0
518 518 1 0.001 304000 0.0403143 0.00965089 0
519 519 1 0.001 304000 0.0566969 0.0231561 0
520 520 1 0.001 304000 0.0567512 -0.0384153 0
521 521 1 0.001 304000 0.0608582 -0.0430041 0
522 522 1 0.001 304000 0.015147 0.0452599 0
523 523 1 0.001 304000 0.023644 -0.0235966 0
524 524 1 0.001 304000 -0.0442023 -0.00449059 0
525 525 1 0.001 304000 -0.0279335 -0.0393633 0
526 526 1 0.001 304000 0.0680713 0.0304523 0
527 527 1 0.001 304000 -0.0330249 -0.0221753 0
528 528 1 0.001 304000 -0.0450558 0.0214053 0
529 529 1 0.001 304000 -0.00654948 -0.0484776 0
530 530 1 0.001 304000 -0.0323517 -0.033897 0
531 531 1 0.001 304000 -0.00910701 0.0230908 0
532 532 1 0.001 304000 -0.0220214 0.0192254 0
533 533 1 0.001 304000 0.0541913 0.00244271 0
534 534 1 0.001 304000 0.0206311 -0.0288113 0
535 535 1 0.001 304000 -0.00897611 0.0199181 0
536 536 1 0.001 304000 0.0320069 -0.030082 0
537 537 1 0.001 304000 -0.0594167 -0.00975266 0
538 538 1 0.001 304000 -0.0576025 -0.0443732 0
539 539 1 0.001 304000 -0.00737371 -0.0228387 0
540 540 1 0.001 304000 0.00802035 -0.0146302 0
541 541 1 0.001 304000 -0.00318044 0.0127687 0
542 542 1 0.001 304000 -0.0655702 -0.0329533 0
543 543 1 0.001 304000 -0.0523628 0.0127466 0
544 544 1 0.001 304000 -0.0139777 -0.0372553 0
545 545 1 0.001 304000 -0.0650252 -0.0168464 0
546 546 1 0.001 304000 0.0439835 -0.0153851 0
547 547 1 0.001 304000 -0.0250397 -0.0433726 0
548 548 1 0.001 304000 -0.0385124 0.00829525 0
549 549 1 0.001 304000 -0.0707679 -0.0487975 0
550 550 1 0.001 304000 -0.0546221 0.0111116 0
551 551 1 0.001 304000 -0.0426635 -0.0382838 0
552 552 1 0.001 304000 -0.0620568 -0.00582849 0
553 553 1 0.001 304000 -0.0148302 0.0351123 0
554 554 1 0.001 304000 -0.059957 0.00496064 0
555 555 1 0.001 304000 0.0322575 -0.0173226 0
556 556 1 0.001 304000 -0.024642 0.0377185 0
557 557 1 0.001 304000 0.0139022 0.0224713 0
558 558 1 0.001 304000 -0.0325005 0.0216616 0
559 559 1 0.001 304000 -0.0594298 -0.0326579 0
560 560 1 0.001 304000 0.016496 0.000209706 0
561 561 1 0.001 304000 -0.0292208 -0.0334369 0
562 562 1 0.001 304000 0.0260937 0.00435754 0
563 563 1 0.001 304000 -0.0320693 -0.0384405 0
564 564 1 0.001 304000 -0.0331284 0.0481387 0
565 565 1 0.001 304000 0.0380658 0.0157287 0
566 566 1 0.001 304000 0.0186462 -0.00465538 0
567 567 1 0.001 304000 -0.0236296 -0.0450915 0
568 568 1 0.001 304000 -0.0333523 0.00999203 0
569 569 1 0.001 304000 0.06593 0.0415753 0
570 570 1 0.001 304000 0.0504153 0.017578 0
571 571 1 0.001 304000 0.029741 0.0488319 0
572 572 1 0.001 304000 0.0530228 -0.0131141 0
573 573 1 0.001 304000 -0.0538981 -0.0474222 0
574 574 1 0.001 304000 -0.0106258 -0.049685 0
575 575 1 0.001 304000 0.0253977 0.00699982 0
576 576 1 0.001 304000 0.00122906 0.0428963 0
577 577 1 0.001 304000 -0.0581609 0.0435366 0
578 578 1 0.001 304000 0.00957226 -0.032663 0
579 579 1 0.001 304000 0.0158198 -0.0113475 0
580 580 1 0.001 304000 -0.0140043 -0.000384008 0
581 581 1 0.001 304000 -0.00478338 0.0297925 0
582 582 1 0.001 304000 -0.0699079 -0.0120055 0
583 583 1 0.001 304000 -0.0293085 -0.0220165 0
584 584 1 0.001 304000 0.0229657 -0.00169904 0
585 585 1 0.001 304000 -0.00850419 0.0343505 0
586 586 1 0.001 304000 -0.00930841 -0.0194803 0
587 587 1 0.001 304000 0.0110317 -0.033627 0
588 588 1 0.001 304000 0.00686814 0.011361 0
589 589 1 0.001 304000 -0.0413332 -0.0234271 0
590 590 1 0.001 304000 -0.066782 -0.0284233 0
591 591 1 0.001 304000 -0.0308358 0.0390666 0
592 592 1 0.001 304000 0.0165104 -0.00909047 0
593 593 1 0.001 304000 0.00609299 0.044966 0
594 594 1 0.001 304000 0.0726533 -0.0363711 0
595 595 1 0.001 304000 0.0632896 -0.0169043 0
596 596 1 0.001 304000 -3.16986e-05 0.0282006 0
597 597 1 0.001 304000 -0.0107424 0.0377811 0
598 598 1 0.001 304000 0.0666036 0.0443657 0
599 599 1 0.001 304000 0.0521249 0.0480379 0
600 600 1 0.001 304000 -0.0176085 -0.00201294 0
601 601 1 0.001 304000 -0.0545802 0.0402302 0
602 602 1 0.001 304000 -0.0612078 0.0391983 0
603 603 1 0.001 304000 -0.00254951 0.0356844 0
604 604 1 0.001 304000 -0.00890559 0.049542 0
605 605 1 0.001 304000 -0.0400023 -0.0348709 0
606 606 1 0.001 304000 -0.0625232 -0.0486968 0
607 607 1 0.001 304000 -0.000769965 0.0228578 0
608 608 1 0.001 304000 0.0598874 -0.000784883 0
609 609 1 0.001 304000 -0.0128414 -0.0262887 0
610 610 1 0.001 304000 -0.0657837 -0.00904832 0
611 611 1 0.001 304000 0.0089048 -0.0441919 0
612 612 1 0.001 304000 -0.0233871 0.00480543 0
613 613 1 0.001 304000 -0.0509546 -0.00326235 0
614 614 1 0.001 304000 -0.00808306 -0.0180066 0
615 615 1 0.001 304000 0.0199215 0.0260709 0
616 616 1 0.001 304000 -0.0118385 -0.0366887 0
617 617 1 0.001 304000 0.0139835 0.0387385 0
618 618 1 0.001 304000 0.00842312 0.0199816 0
619 619 1 0.001 304000 0.014792 -0.0333364 0
620 620 1 0.001 304000 0.0144557 0.0109824 0
621 621 1 0.001 304000 0.0209327 0.0359745 0
622 622 1 0.001 304000 0.0359805 0.0413185 0
623 623 1 0.001 304000 0.0105904 0.0242717 0
624 624 1 0.001 304000 0.0303667 0.00751416 0
625 625 1 0.001 304000 0.0571189 0.000493308 0
626 626 1 0.001 304000 -0.0427605 0.042591 0
627 627 1 0.001 304000 0.0159175 0.0496606 0
628 628 1 0.001 304000 0.0418985 0.0498699 0
629 629 1 0.001 304000 0.046623 0.0357516 0
630 630 1 0.001 304000 0.0347886 0.0325108 0
631 631 1 0.001 304000 0.0542027 -0.00988856 0
632 632 1 0.001 304000 -0.0601587 -0.043938 0
633 633 1 0.001 304000 0.0418223 0.00173286 0
634 634 1 0.001 304000 0.0185983 -0.002378 0
635 635 1 0.001 304000 0.0352691 0.0431643 0
636 636 1 0.001 304000 0.00955094 0.0326147 0
637 637 1 0.001 304000 0.0710839 -0.0454678 0
638 638 1 0.001 304000 0.0104105 -0.0461559 0
639 639 1 0.001 304000 -0.0393622 0.0492651 0
640 640 1 0.001 304000 -0.0270058 -0.0205951 0
641 641 1 0.001 304000 0.0422837 -0.0272366 0
642 642 1 0.001 304000 0.0407958 0.0129135 0
643 643 1 0.001 304000 -0.0586393 -0.0356377 0
644 644 1 0.001 304000 0.014635 0.0181981 0
645 645 1 0.001 304000 -0.0162953 -0.0410195 0
646 646 1 0.001 304000 -0.0613647 -0.00915944 0
647 647 1 0.001 304000 0.0251143 -0.0353064 0
648 648 1 0.001 304000 0.00864032 -0.0404355 0
649 649 1 0.001 304000 0.0700231 -0.00324265 0
650 650 1 0.001 304000 -0.0324746 0.0320698 0
651 651 1 0.001 304000 0.0245201 0.0312287 0
652 652 1 0.001 304000 0.0267109 0.00961433 0