ITEM: TIMESTEP
0
ITEM: NUMBER OF ATOMS
6019
ITEM: BOX BOUNDS ff ff pp
-6.0499999999999998e-02 6.0499999999999998e-02
-5.4986201149790005e-02 5.5003301149790004e-02
-5.4999999999999997e-03 5.4999999999999997e-03
ITEM: ATOMS id type mol x y
2497 1 2497 -0.048072 -0.0495501
2875 1 2875 -0.0481652 -0.0479598
3759 1 3759 -0.048247 -0.0516902
5485 1 5485 -0.0483414 -0.0541248
829 1 829 -0.0479118 -0.0529076
862 1 862 -0.0468174 -0.0478159
1591 1 1591 -0.0466661 -0.0527769
2101 1 2101 -0.0466883 -0.0513928
2474 1 2474 -0.0467915 -0.0542587
4301 1 4301 -0.0468868 -0.0490316
4656 1 4656 -0.0475733 -0.0506394
912 1 912 -0.045467 -0.0519536
1822 1 1822 -0.045461 -0.0485517
5715 1 5715 -0.0459597 -0.0501911
5888 1 5888 -0.0456317 -0.0533705
2995 1 2995 -0.044531 -0.0530109
4934 1 4934 -0.0450613 -0.0544726
5030 1 5030 -0.0445184 -0.0503425
5 1 5 -0.0442118 -0.0515286
82 1 82 -0.0426282 -0.0500709
255 1 255 -0.0416409 -0.0520015
710 1 710 -0.0439706 -0.0480179
1176 1 1176 -0.0430781 -0.0523439
1842 1 1842 -0.0437635 -0.0493307
1845 1 1845 -0.0425524 -0.0537174
2244 1 2244 -0.0437273 -0.0537483
2834 1 2834 -0.0417745 -0.0492245
2854 1 2854 -0.0415921 -0.0505122
3514 1 3514 -0.0417111 -0.0546465
4786 1 4786 -0.0427532 -0.0486365
5053 1 5053 -0.0426672 -0.047507
5307 1 5307 -0.0430106 -0.0511006
5682 1 5682 -0.0432236 -0.0547695
4455 1 4455 -0.0406815 -0.0495789
4600 1 4600 -0.0413361 -0.053536
4425 1 4425 -0.0405797 -0.0510221
4832 1 4832 -0.0446619 -0.0471395
1659 1 1659 -0.040214 -0.0532417
3154 1 3154 -0.0401462 -0.0483311
3415 1 3415 -0.0400188 -0.0544102
75 1 75 -0.0385777 -0.0489732
111 1 111 -0.0388932 -0.0527723
918 1 918 -0.0386074 -0.054492
1456 1 1456 -0.0387721 -0.0509778
1641 1 1641 -0.0395993 -0.0500512
5226 1 5226 -0.0397634 -0.0519222
2270 1 2270 -0.0378228 -0.0519267
1584 1 1584 -0.0387634 -0.0472953
32 1 32 -0.037515 -0.0503327
303 1 303 -0.0375943 -0.0530534
634 1 634 -0.0371864 -0.0473465
4493 1 4493 -0.0365368 -0.0511541
4836 1 4836 -0.0372923 -0.0486564
4950 1 4950 -0.0365693 -0.0524171
5916 1 5916 -0.037251 -0.0545775
292 1 292 -0.0363152 -0.0537803
588 1 588 -0.0358205 -0.0477409
2719 1 2719 -0.0353576 -0.051953
3406 1 3406 -0.0362675 -0.0493638
5668 1 5668 -0.0356519 -0.0549564
279 1 279 -0.0349213 -0.0538859
324 1 324 -0.0344539 -0.0474687
786 1 786 -0.0339855 -0.050673
1509 1 1509 -0.0338287 -0.0546746
1876 1 1876 -0.0338373 -0.0493407
2514 1 2514 -0.0337052 -0.0533107
2869 1 2869 -0.0341166 -0.0521059
3766 1 3766 -0.035236 -0.0504722
5769 1 5769 -0.0349393 -0.0489573
187 1 187 -0.0312634 -0.053093
721 1 721 -0.0328238 -0.051865
1117 1 1117 -0.0313432 -0.0504041
1635 1 1635 -0.0324835 -0.0530742
3135 1 3135 -0.0316049 -0.0489138
3187 1 3187 -0.0315293 -0.0548207
3598 1 3598 -0.0317465 -0.0477078
4104 1 4104 -0.032696 -0.0505201
5380 1 5380 -0.0330277 -0.0480042
5394 1 5394 -0.0327287 -0.0491721
5458 1 5458 -0.0326496 -0.0545503
5914 1 5914 -0.0316095 -0.0516391
3910 1 3910 -0.030323 -0.0489097
5252 1 5252 -0.0303998 -0.0512766
5350 1 5350 -0.0302636 -0.0476668
1161 1 1161 -0.0482233 -0.0401831
5187 1 5187 -0.0482811 -0.0462853
5450 1 5450 -0.0480119 -0.0431386
325 1 325 -0.0468665 -0.0401647
1282 1 1282 -0.0463563 -0.0427883
1660 1 1660 -0.0467906 -0.0438288
2978 1 2978 -0.0478396 -0.0445648
3780 1 3780 -0.0471405 -0.0467502
4338 1 4338 -0.0476139 -0.0418287
5213 1 5213 -0.0468033 -0.0455872
5474 1 5474 -0.0463762 -0.041477
3900 1 3900 -0.0457108 -0.0396452
3182 1 3182 -0.0458501 -0.0470384
3270 1 3270 -0.0454408 -0.0459379
4627 1 4627 -0.0456815 -0.0447541
2098 1 2098 -0.0415232 -0.0470338
1261 1 1261 -0.0451191 -0.0436086
3782 1 3782 -0.0451377 -0.0418638
4098 1 4098 -0.0451426 -0.0407279
5256 1 5256 -0.0441743 -0.0458223
167 1 167 -0.0433804 -0.0466281
2074 1 2074 -0.0428128 -0.0445257
2648 1 2648 -0.0416772 -0.0427929
2831 1 2831 -0.0435769 -0.0412385
3291 1 3291 -0.0440921 -0.0444669
3809 1 3809 -0.0431689 -0.0433645
4373 1 4373 -0.0416203 -0.0413836
5177 1 5177 -0.0423387 -0.0404122
5194 1 5194 -0.0441578 -0.0425755
5216 1 5216 -0.044153 -0.0399761
5493 1 5493 -0.0416566 -0.0449224
5538 1 5538 -0.0424397 -0.0458192
5764 1 5764 -0.042763 -0.0421985
2277 1 2277 -0.0431408 -0.0394455
525 1 525 -0.0408833 -0.0458671
1732 1 1732 -0.0412059 -0.0438615
3008 1 3008 -0.040817 -0.0402507
5841 1 5841 -0.0404013 -0.0446644
5998 1 5998 -0.0405111 -0.042451
4371 1 4371 -0.0402125 -0.0413254
1253 1 1253 -0.0399543 -0.0434949
4229 1 4229 -0.0400506 -0.046902
190 1 190 -0.0389874 -0.0419163
701 1 701 -0.0395314 -0.0454399
2137 1 2137 -0.0391939 -0.0401593
3475 1 3475 -0.0388046 -0.0431508
4965 1 4965 -0.0380927 -0.0409047
5237 1 5237 -0.0387942 -0.0443432
4021 1 4021 -0.0378857 -0.0452563
5100 1 5100 -0.0401284 -0.0393101
12 1 12 -0.0333105 -0.0468584
597 1 597 -0.0366272 -0.0452693
1423 1 1423 -0.0374842 -0.0397779
2660 1 2660 -0.0364482 -0.0427038
2826 1 2826 -0.0373772 -0.0439142
3401 1 3401 -0.0369925 -0.0415656
3649 1 3649 -0.0377656 -0.0425802
1934 1 1934 -0.036048 -0.0408153
2242 1 2242 -0.0356006 -0.0396483
4595 1 4595 -0.0359365 -0.0462531
4878 1 4878 -0.0359194 -0.0441368
317 1 317 -0.033632 -0.0411733
663 1 663 -0.0334176 -0.045478
1127 1 1127 -0.0341555 -0.0438538
1510 1 1510 -0.0348616 -0.0448428
3279 1 3279 -0.0328394 -0.042377
3292 1 3292 -0.035238 -0.0428384
3979 1 3979 -0.0352102 -0.0415969
4077 1 4077 -0.0346074 -0.0404394
4103 1 4103 -0.0341558 -0.042312
4331 1 4331 -0.0333002 -0.0398472
4400 1 4400 -0.0346102 -0.0461016
1056 1 1056 -0.0328653 -0.0438825
1328 1 1328 -0.0321394 -0.0462852
2374 1 2374 -0.0316588 -0.0449315
3231 1 3231 -0.0317595 -0.0430264
3815 1 3815 -0.0320779 -0.0410188
3816 1 3816 -0.0321745 -0.039569
62 1 62 -0.0306087 -0.0405617
1717 1 1717 -0.0310165 -0.0419919
2208 1 2208 -0.0309218 -0.0467378
3506 1 3506 -0.0308079 -0.0437894
5331 1 5331 -0.0304564 -0.0457305
522 1 522 -0.0483137 -0.0339656
2167 1 2167 -0.0478351 -0.0370385
2986 1 2986 -0.0465841 -0.032726
3391 1 3391 -0.046506 -0.0347364
3510 1 3510 -0.0471443 -0.0337164
3571 1 3571 -0.0473192 -0.0386255
4831 1 4831 -0.0466 -0.0370499
5199 1 5199 -0.0472735 -0.03569
5573 1 5573 -0.0479646 -0.0325115
927 1 927 -0.0461404 -0.038426
5940 1 5940 -0.0464878 -0.0316038
4062 1 4062 -0.0453956 -0.0351759
4602 1 4602 -0.0457064 -0.0334587
5702 1 5702 -0.0458726 -0.0362255
5071 1 5071 -0.0415537 -0.039231
938 1 938 -0.0437109 -0.0320763
1597 1 1597 -0.0452923 -0.0376129
1914 1 1914 -0.0446573 -0.0387917
4093 1 4093 -0.0446418 -0.0363444
4489 1 4489 -0.0447227 -0.034066
5919 1 5919 -0.0449919 -0.032494
592 1 592 -0.0414365 -0.0342387
847 1 847 -0.0421543 -0.0372115
1603 1 1603 -0.0428724 -0.034412
2184 1 2184 -0.0437396 -0.0378628
2696 1 2696 -0.042313 -0.0331576
3174 1 3174 -0.0440123 -0.0351663
3211 1 3211 -0.0425284 -0.0384631
3945 1 3945 -0.0432963 -0.0363618
5041 1 5041 -0.0437609 -0.0332868
5281 1 5281 -0.042348 -0.0354906
2619 1 2619 -0.0410923 -0.0353289
3650 1 3650 -0.0407821 -0.0365392
3896 1 3896 -0.0411911 -0.0323897
4603 1 4603 -0.0410144 -0.0380618
568 1 568 -0.0404904 -0.0334213
5207 1 5207 -0.040018 -0.0345043
130 1 130 -0.0393691 -0.0328768
2181 1 2181 -0.0398261 -0.035705
4286 1 4286 -0.0398005 -0.0382163
1811 1 1811 -0.0386334 -0.0389324
2987 1 2987 -0.0392491 -0.0370076
3423 1 3423 -0.0384383 -0.0339193
4754 1 4754 -0.0382662 -0.0321088
4996 1 4996 -0.0388776 -0.0349868
3486 1 3486 -0.0380112 -0.0360085
4739 1 4739 -0.0378669 -0.0378037
3044 1 3044 -0.0401357 -0.0315491
5368 1 5368 -0.0310151 -0.0392699
374 1 374 -0.0374297 -0.03318
1205 1 1205 -0.0362324 -0.034133
1558 1 1558 -0.0365382 -0.0376638
3550 1 3550 -0.036674 -0.038979
3870 1 3870 -0.0373781 -0.0346558
4747 1 4747 -0.036266 -0.0329407
5511 1 5511 -0.0370153 -0.0320041
5731 1 5731 -0.0369472 -0.0365401
2748 1 2748 -0.0349189 -0.0352509
3269 1 3269 -0.035582 -0.0366932
3305 1 3305 -0.035387 -0.0382105
5699 1 5699 -0.03617 -0.0355283
749 1 749 -0.0347453 -0.0323099
1269 1 1269 -0.0338982 -0.034378
1661 1 1661 -0.0350137 -0.0337462
2581 1 2581 -0.0341732 -0.0390243
2790 1 2790 -0.0334731 -0.0327591
3197 1 3197 -0.0332656 -0.0377793
3462 1 3462 -0.0343025 -0.0362969
4203 1 4203 -0.0344838 -0.0374076
5541 1 5541 -0.0332625 -0.0356802
158 1 158 -0.0317521 -0.0332732
241 1 241 -0.0324225 -0.0366632
586 1 586 -0.032226 -0.0384105
1179 1 1179 -0.0320027 -0.0348807
1365 1 1365 -0.0319695 -0.0319987
4252 1 4252 -0.032795 -0.0338633
5982 1 5982 -0.0315335 -0.0374656
150 1 150 -0.0305612 -0.0347577
898 1 898 -0.0305524 -0.038051
2880 1 2880 -0.0305994 -0.0335287
855 1 855 -0.0311063 -0.0360383
98 1 98 -0.0303267 -0.0323751
2333 1 2333 -0.0476849 -0.0311656
2678 1 2678 -0.0474147 -0.0253932
3440 1 3440 -0.046567 -0.0241473
3897 1 3897 -0.0464863 -0.0287825
4194 1 4194 -0.0465078 -0.0267328
5770 1 5770 -0.047515 -0.0297931
5847 1 5847 -0.0476049 -0.0280388
494 1 494 -0.0462429 -0.0302622
5090 1 5090 -0.0459812 -0.0255013
1091 1 1091 -0.0454435 -0.027706
2796 1 2796 -0.0478597 -0.0238843
693 1 693 -0.0439271 -0.0289506
1401 1 1401 -0.0441337 -0.0278013
1686 1 1686 -0.0447309 -0.025436
1944 1 1944 -0.0452284 -0.0292578
2115 1 2115 -0.0451783 -0.0312982
2291 1 2291 -0.044343 -0.0302504
3844 1 3844 -0.043667 -0.0248498
4876 1 4876 -0.0441696 -0.0266126
5020 1 5020 -0.0453209 -0.0265389
620 1 620 -0.0424685 -0.0243741
888 1 888 -0.0411858 -0.0294042
1969 1 1969 -0.0430194 -0.0261015
2116 1 2116 -0.041693 -0.0268098
3215 1 3215 -0.0420574 -0.031176
3854 1 3854 -0.0428636 -0.0276884
4982 1 4982 -0.0415385 -0.0280518
5181 1 5181 -0.0433437 -0.0309149
5221 1 5221 -0.0427103 -0.0293798
146 1 146 -0.0450913 -0.0239885
94 1 94 -0.0407355 -0.030526
121 1 121 -0.0411532 -0.0257429
916 1 916 -0.0411001 -0.0245302
1397 1 1397 -0.0402721 -0.0275544
1745 1 1745 -0.039973 -0.0259046
4008 1 4008 -0.0395859 -0.0245852
5108 1 5108 -0.0397216 -0.029475
601 1 601 -0.0382503 -0.0292493
988 1 988 -0.0383204 -0.0253662
2070 1 2070 -0.0390633 -0.0308121
4011 1 4011 -0.0388675 -0.0280496
4591 1 4591 -0.0388835 -0.026522
4937 1 4937 -0.0379823 -0.0242178
5355 1 5355 -0.0303724 -0.023625
804 1 804 -0.0360476 -0.0312688
611 1 611 -0.0368087 -0.0243052
2554 1 2554 -0.0377613 -0.0271733
2584 1 2584 -0.0376703 -0.0308045
3489 1 3489 -0.0371036 -0.0282519
5245 1 5245 -0.0369687 -0.0297217
5889 1 5889 -0.0370406 -0.0259675
1279 1 1279 -0.0355722 -0.0247883
2143 1 2143 -0.0357624 -0.0282791
2442 1 2442 -0.0355039 -0.0261621
3666 1 3666 -0.0357232 -0.0296694
4188 1 4188 -0.0361172 -0.0271661
1616 1 1616 -0.0336154 -0.0295143
1933 1 1933 -0.0346716 -0.0288077
1975 1 1975 -0.033306 -0.0310963
2018 1 2018 -0.0341397 -0.0247722
3083 1 3083 -0.033442 -0.0266687
3602 1 3602 -0.0345095 -0.0274691
3646 1 3646 -0.0343766 -0.0260318
3788 1 3788 -0.0346753 -0.0306042
4326 1 4326 -0.033378 -0.0280021
537 1 537 -0.0322946 -0.0268732
1564 1 1564 -0.0320784 -0.0281158
2201 1 2201 -0.0327125 -0.0253708
2550 1 2550 -0.0323502 -0.0292472
3539 1 3539 -0.0330407 -0.0240631
4308 1 4308 -0.0317495 -0.0238586
5079 1 5079 -0.0314904 -0.0260572
5095 1 5095 -0.0320777 -0.0303938
3520 1 3520 -0.0309147 -0.0313419
1373 1 1373 -0.030845 -0.0299801
711 1 711 -0.0310571 -0.0249789
4531 1 4531 -0.0310312 -0.0274924
5480 1 5480 -0.0310225 -0.028806
1827 1 1827 -0.0302502 -0.0264253
1331 1 1331 -0.0474727 -0.016742
2317 1 2317 -0.046965 -0.0181103
5833 1 5833 -0.0475616 -0.0225571
5844 1 5844 -0.0468767 -0.019828
5942 1 5942 -0.0462453 -0.0163768
1435 1 1435 -0.0465185 -0.0214942
2985 1 2985 -0.0462551 -0.0228177
4211 1 4211 -0.0455319 -0.0192498
3223 1 3223 -0.045668 -0.0176186
3434 1 3434 -0.0456381 -0.0206945
4716 1 4716 -0.0407377 -0.023384
153 1 153 -0.0447618 -0.0163025
1407 1 1407 -0.0441965 -0.0195656
1645 1 1645 -0.04369 -0.0233839
2236 1 2236 -0.0450734 -0.0222732
5303 1 5303 -0.0438532 -0.021845
5308 1 5308 -0.0444374 -0.0207801
5513 1 5513 -0.0440594 -0.0174498
245 1 245 -0.0417521 -0.0163127
493 1 493 -0.0426537 -0.0195586
670 1 670 -0.0423746 -0.0177523
1735 1 1735 -0.0431876 -0.0205428
1739 1 1739 -0.0426156 -0.0216813
2653 1 2653 -0.0431534 -0.0164435
2965 1 2965 -0.0417713 -0.0189232
3390 1 3390 -0.041654 -0.0207933
4612 1 4612 -0.0433862 -0.0185339
4909 1 4909 -0.0420225 -0.0228926
290 1 290 -0.0408032 -0.0219294
1897 1 1897 -0.0407079 -0.0192379
4647 1 4647 -0.0411073 -0.0177861
5883 1 5883 -0.040475 -0.0204204
4221 1 4221 -0.040005 -0.0161879
418 1 418 -0.0395863 -0.0229527
1623 1 1623 -0.0391778 -0.0204061
1899 1 1899 -0.0399587 -0.0181233
2938 1 2938 -0.0397216 -0.0215085
3005 1 3005 -0.0394548 -0.0192247
3117 1 3117 -0.0390413 -0.0173062
3495 1 3495 -0.0382253 -0.0164173
4086 1 4086 -0.0386147 -0.0218916
4473 1 4473 -0.0382788 -0.0185057
5989 1 5989 -0.0384431 -0.0231709
1653 1 1653 -0.0379194 -0.0197269
4693 1 4693 -0.0379359 -0.020947
178 1 178 -0.0368211 -0.0187672
416 1 416 -0.0373138 -0.0227706
1955 1 1955 -0.0373702 -0.0174431
2879 1 2879 -0.0369229 -0.0216
5009 1 5009 -0.0366958 -0.0200879
2793 1 2793 -0.0356072 -0.0210457
2818 1 2818 -0.0359637 -0.0177403
3054 1 3054 -0.0360602 -0.0230662
3134 1 3134 -0.0353683 -0.019287
3236 1 3236 -0.0361258 -0.0162398
1053 1 1053 -0.0338504 -0.0188998
1073 1 1073 -0.0345178 -0.0232592
1342 1 1342 -0.0346232 -0.0178084
3290 1 3290 -0.0341578 -0.0203456
3451 1 3451 -0.0333092 -0.0228697
4181 1 4181 -0.0332179 -0.021526
4567 1 4567 -0.0350073 -0.0166775
4652 1 4652 -0.033688 -0.0168272
4799 1 4799 -0.0345306 -0.0218791
1315 1 1315 -0.0328932 -0.017965
1445 1 1445 -0.0325012 -0.0197842
2782 1 2782 -0.0318258 -0.0214573
3207 1 3207 -0.0318356 -0.0167292
4681 1 4681 -0.0328476 -0.0159858
5584 1 5584 -0.0316492 -0.0179191
5646 1 5646 -0.0320038 -0.0226968
762 1 762 -0.0312182 -0.0191297
2884 1 2884 -0.0306577 -0.0223031
3746 1 3746 -0.0307564 -0.0205284
4157 1 4157 -0.0304755 -0.0177324
4803 1 4803 -0.0305062 -0.0165054
2518 1 2518 -0.0343712 -0.0157489
1123 1 1123 -0.0464538 -0.0118216
2045 1 2045 -0.046479 -0.00862751
2861 1 2861 -0.0477618 -0.0112547
3540 1 3540 -0.0472855 -0.0130945
3713 1 3713 -0.0466299 -0.0103167
4249 1 4249 -0.0477061 -0.00935883
4381 1 4381 -0.0470765 -0.0149597
1468 1 1468 -0.0454883 -0.00957827
2940 1 2940 -0.0456391 -0.0151101
3303 1 3303 -0.0459438 -0.0137739
1426 1 1426 -0.0445518 -0.0136582
1763 1 1763 -0.0451771 -0.0109797
1870 1 1870 -0.0451258 -0.0123451
2729 1 2729 -0.0444877 -0.0148982
3437 1 3437 -0.0438421 -0.0108731
5836 1 5836 -0.0442684 -0.00956136
903 1 903 -0.0437002 -0.0080838
2150 1 2150 -0.0432409 -0.0139999
2228 1 2228 -0.0422795 -0.0131389
2257 1 2257 -0.0422855 -0.0104347
3607 1 3607 -0.0421027 -0.014839
3748 1 3748 -0.0437805 -0.0123846
4430 1 4430 -0.042522 -0.0118291
5200 1 5200 -0.0434248 -0.0153226
5429 1 5429 -0.0430471 -0.00931076
5662 1 5662 -0.0419704 -0.00870257
305 1 305 -0.0408711 -0.00799776
1644 1 1644 -0.0412794 -0.0116917
2449 1 2449 -0.0407816 -0.0152374
4991 1 4991 -0.0409557 -0.0100119
5024 1 5024 -0.0409805 -0.0129747
3964 1 3964 -0.0405844 -0.0141312
1419 1 1419 -0.0401341 -0.0112371
1937 1 1937 -0.0397292 -0.0127417
3931 1 3931 -0.0398407 -0.00861846
141 1 141 -0.0389552 -0.0117008
491 1 491 -0.0382049 -0.0136426
755 1 755 -0.0390316 -0.015294
848 1 848 -0.0382235 -0.00887561
3537 1 3537 -0.0393895 -0.0140695
4536 1 4536 -0.0391328 -0.0101392
635 1 635 -0.0378749 -0.0100358
2645 1 2645 -0.0378689 -0.0111249
4457 1 4457 -0.0379479 -0.0124154
3326 1 3326 -0.0324468 -0.00799655
2089 1 2089 -0.0343913 -0.00801447
2620 1 2620 -0.0373637 -0.0153339
4328 1 4328 -0.0364902 -0.00953936
4903 1 4903 -0.0365696 -0.0134555
5125 1 5125 -0.0365582 -0.00835064
5129 1 5129 -0.0368888 -0.0118528
5876 1 5876 -0.036822 -0.0106437
5618 1 5618 -0.0318319 -0.0154467
68 1 68 -0.0353185 -0.00887415
1433 1 1433 -0.036064 -0.0148388
2364 1 2364 -0.0355583 -0.0105163
2728 1 2728 -0.0357398 -0.0117186
3259 1 3259 -0.0353131 -0.0134522
69 1 69 -0.033814 -0.0132739
893 1 893 -0.0347281 -0.0123542
1042 1 1042 -0.0341714 -0.00976565
2069 1 2069 -0.0342506 -0.011203
4927 1 4927 -0.0330964 -0.0118824
5637 1 5637 -0.0334689 -0.00868423
5686 1 5686 -0.0334314 -0.0149054
5790 1 5790 -0.0348191 -0.0146629
608 1 608 -0.0318791 -0.0121619
757 1 757 -0.0323922 -0.00953196
889 1 889 -0.0312105 -0.00816079
943 1 943 -0.0313719 -0.0140722
2177 1 2177 -0.03254 -0.0139248
2192 1 2192 -0.0329123 -0.010589
4744 1 4744 -0.031599 -0.0109749
3588 1 3588 -0.0309591 -0.012839
5423 1 5423 -0.0311031 -0.00946586
1841 1 1841 -0.0306839 -0.0152302
1677 1 1677 -0.030368 -0.0110084
5478 1 5478 -0.047567 -0.00407522
5277 1 5277 -0.047283 -0.00753171
628 1 628 -0.0469977 -0.00563576
664 1 664 -0.0462439 -0.000503758
915 1 915 -0.0461598 -0.00682371
1116 1 1116 -0.0464127 -0.00211567
1163 1 1163 -0.0473528 -0.00121009
5612 1 5612 -0.0474215 -0.00280575
337 1 337 -0.0462645 -0.00407053
1113 1 1113 -0.0454524 -0.00563033
5768 1 5768 -0.0455477 -0.00288361
627 1 627 -0.0453498 -0.00782294
4942 1 4942 -0.0431841 -0.00677819
4042 1 4042 -0.041546 -0.00511408
3849 1 3849 -0.0426811 -0.00282196
3494 1 3494 -0.0422354 -0.00754066
2836 1 2836 -0.0416607 -0.00364517
5316 1 5316 -0.044496 -8.08676e-05
124 1 124 -0.0439368 -0.00529677
790 1 790 -0.0438453 -0.00338378
2945 1 2945 -0.044548 -0.00218949
3711 1 3711 -0.0448383 -0.00414951
3749 1 3749 -0.0445675 -0.00669723
3789 1 3789 -0.0452756 -0.00120331
5757 1 5757 -0.0434228 -0.00198112
445 1 445 -0.0429308 -0.00422065
582 1 582 -0.0424758 -0.00579442
1288 1 1288 -0.0424246 -0.000864082
2059 1 2059 -0.0435644 -0.000789344
2699 1 2699 -0.0418465 -0.00193164
4706 1 4706 -0.0410272 -0.000707592
2331 1 2331 -0.0413468 -0.00673776
5080 1 5080 -0.0405835 -0.00226801
1167 1 1167 -0.0403484 -0.00516347
767 1 767 -0.0390053 -0.00571764
4299 1 4299 -0.04019 -0.00664148
1588 1 1588 -0.0403077 -0.00375085
1475 1 1475 -0.0391743 -0.00746397
1000 1 1000 -0.039829 -0.000829907
3307 1 3307 -0.0380237 -0.00484018
4916 1 4916 -0.0380769 -0.00670637
5505 1 5505 -0.0384436 -0.000203233
2877 1 2877 -0.0388642 -0.0014206
3082 1 3082 -0.039245 -0.00257824
361 1 361 -0.0388817 -0.00385288
1138 1 1138 -0.031412 -0.000877936
3803 1 3803 -0.0365472 -0.00706352
4036 1 4036 -0.0376636 -0.00777818
2609 1 2609 -0.0366001 -0.00136319
2096 1 2096 -0.0329366 -0.00451847
5781 1 5781 -0.0314426 -0.00677955
4745 1 4745 -0.0343669 -0.00393724
3051 1 3051 -0.0344103 -0.00611525
3767 1 3767 -0.0339465 -0.00502913
3314 1 3314 -0.0307381 -0.0030064
4631 1 4631 -0.03718 -0.00584325
289 1 289 -0.0335333 -0.00711126
443 1 443 -0.0377383 -0.00180665
1326 1 1326 -0.0353792 -0.00129991
4589 1 4589 -0.0318203 -0.00376602
5454 1 5454 -0.0326221 -0.00645923
967 1 967 -0.0368339 -0.00427065
4575 1 4575 -0.034052 -0.00132644
5048 1 5048 -0.0309469 -0.0050329
4677 1 4677 -0.0315451 -0.00212161
2546 1 2546 -0.0321863 -0.00536952
5864 1 5864 -0.0353708 -0.00745479
5008 1 5008 -0.0377314 -0.00305305
739 1 739 -0.0328705 -0.00116956
1884 1 1884 -0.0344218 -0.00271442
3707 1 3707 -0.0354023 -0.00457338
2511 1 2511 -0.0362256 -0.00273894
1462 1 1462 -0.0326988 -0.00241578
102 1 102 -0.0358256 -0.00585122
5634 1 5634 -0.0331846 -0.00339608
1298 1 1298 -0.0373583 -0.000444931
4279 1 4279 -0.0351646 -3.16735e-05
1675 1 1675 -0.033909 -3.11103e-05
1014 1 1014 -0.0467623 0.00131039
1169 1 1169 -0.0468682 0.00467038
2218 1 2218 -0.046724 0.00675893
3315 1 3315 -0.0468923 0.00253887
4684 1 4684 -0.047702 0.00361825
5464 1 5464 -0.04778 0.00577991
5800 1 5800 -0.0461686 0.00575877
4293 1 4293 -0.0459111 0.00374885
1405 1 1405 -0.0456329 0.000819823
4170 1 4170 -0.0455857 0.00217677
5536 1 5536 -0.0474554 0.000337466
2858 1 2858 -0.0459 0.00784901
2123 1 2123 -0.0448909 0.00663522
3412 1 3412 -0.0443438 0.00116176
4578 1 4578 -0.0443358 0.00399971
4664 1 4664 -0.045249 0.00504679
5639 1 5639 -0.0446289 0.00280395
7 1 7 -0.0436615 0.00214219
437 1 437 -0.0417246 0.00499484
463 1 463 -0.0428877 0.00629774
787 1 787 -0.0417297 0.0027087
845 1 845 -0.0431581 0.000610285
1411 1 1411 -0.0429122 0.00493194
3145 1 3145 -0.0440198 0.00563452
3364 1 3364 -0.0430308 0.00358136
3546 1 3546 -0.0413879 0.00389881
4707 1 4707 -0.0424754 0.00173959
5337 1 5337 -0.0417823 0.00674771
5936 1 5936 -0.0435632 0.00724849
5083 1 5083 -0.0419513 0.000351162
2842 1 2842 -0.0408702 0.00573133
3396 1 3396 -0.0411975 0.00123672
5670 1 5670 -0.0404928 0.0022937
4332 1 4332 -0.0403793 0.00673218
399 1 399 -0.0446222 0.00785587
998 1 998 -0.040137 0.000384818
1576 1 1576 -0.040038 0.00478519
2234 1 2234 -0.040224 0.00353325
1268 1 1268 -0.0392655 0.00214249
2030 1 2030 -0.0395697 0.00764535
806 1 806 -0.0379668 0.00761255
1074 1 1074 -0.037976 0.0018809
2041 1 2041 -0.0380192 0.00500775
2197 1 2197 -0.0388894 0.00358801
2308 1 2308 -0.0392027 0.00557302
2382 1 2382 -0.0389848 0.00081227
3822 1 3822 -0.0389422 0.00669034
5718 1 5718 -0.0378454 0.00625808
907 1 907 -0.0367772 0.00689343
1068 1 1068 -0.036109 0.00353562
1650 1 1650 -0.0374503 0.000835844
3146 1 3146 -0.0373684 0.00360789
4241 1 4241 -0.0367608 0.0023469
4363 1 4363 -0.036531 0.00549673
2009 1 2009 -0.0352186 0.00455294
2563 1 2563 -0.0359277 0.00765718
2779 1 2779 -0.0360734 0.0013721
3382 1 3382 -0.03518 0.00603438
5161 1 5161 -0.0354903 0.00247545
259 1 259 -0.0346495 0.00137162
702 1 702 -0.0336569 0.00612853
1596 1 1596 -0.0334389 0.00356903
2335 1 2335 -0.034658 0.00731261
3605 1 3605 -0.0340438 0.00482941
4669 1 4669 -0.0347024 0.00331268
5846 1 5846 -0.0336428 0.0022451
569 1 569 -0.0324422 0.00744331
1619 1 1619 -0.0323319 0.00293443
1782 1 1782 -0.0312223 0.000625304
2675 1 2675 -0.0327731 0.00492719
2741 1 2741 -0.0331486 0.00116286
3068 1 3068 -0.0318528 0.00608334
4902 1 4902 -0.0318187 0.00417001
5401 1 5401 -0.0320378 0.00167252
270 1 270 -0.0304261 0.0075871
1286 1 1286 -0.030803 0.00499528
3806 1 3806 -0.0308025 0.00327426
3856 1 3856 -0.0363714 0.00017963
5408 1 5408 -0.0325711 0.00013175
2862 1 2862 -0.0307366 0.00194352
5434 1 5434 -0.0304342 0.00627485
3106 1 3106 -0.0478422 0.00978108
2281 1 2281 -0.0469862 0.0126924
2878 1 2878 -0.047374 0.0140649
3074 1 3074 -0.0463118 0.0106246
3112 1 3112 -0.0475367 0.00809477
4250 1 4250 -0.046331 0.0150828
5516 1 5516 -0.0466656 0.00915231
5528 1 5528 -0.0460892 0.013892
4513 1 4513 -0.0458568 0.0124782
3257 1 3257 -0.0453751 0.00917232
1703 1 1703 -0.0425149 0.00806089
970 1 970 -0.044732 0.0148939
1888 1 1888 -0.0445541 0.0125484
3090 1 3090 -0.0435945 0.00847531
3651 1 3651 -0.0438525 0.0107474
4007 1 4007 -0.0449821 0.0135919
4986 1 4986 -0.0442077 0.00943958
5605 1 5605 -0.0450788 0.0114378
1154 1 1154 -0.0417825 0.0119967
2347 1 2347 -0.0429332 0.00956724
3221 1 3221 -0.0436039 0.0140409
3458 1 3458 -0.0429421 0.0150368
3575 1 3575 -0.0422777 0.0133825
3801 1 3801 -0.0430682 0.0117577
4087 1 4087 -0.0434538 0.0128633
4339 1 4339 -0.0423283 0.0106213
4816 1 4816 -0.0416185 0.0146042
5597 1 5597 -0.0417462 0.00940132
561 1 561 -0.0410139 0.0110008
2107 1 2107 -0.0408999 0.0128549
2997 1 2997 -0.0410874 0.00823073
5120 1 5120 -0.040598 0.00963881
3040 1 3040 -0.040387 0.013949
3194 1 3194 -0.0403018 0.0152108
4622 1 4622 -0.0398247 0.0105407
5127 1 5127 -0.0398542 0.0120111
720 1 720 -0.0386189 0.0115768
1038 1 1038 -0.0384355 0.00878336
2050 1 2050 -0.0393121 0.0133586
2179 1 2179 -0.0379195 0.0143807
4080 1 4080 -0.0395081 0.00900783
4127 1 4127 -0.0387203 0.0101437
4636 1 4636 -0.0390852 0.0147685
5792 1 5792 -0.0381134 0.0130038
271 1 271 -0.0372999 0.0115998
2022 1 2022 -0.0360477 0.00903579
2063 1 2063 -0.0374871 0.0100833
2918 1 2918 -0.0372693 0.00869752
3840 1 3840 -0.0367094 0.0143106
3963 1 3963 -0.036208 0.0103487
4176 1 4176 -0.0367724 0.0129334
675 1 675 -0.0350088 0.0103431
1858 1 1858 -0.0359822 0.0115957
3463 1 3463 -0.0355969 0.0137041
3535 1 3535 -0.0350987 0.0148255
699 1 699 -0.0339692 0.0110219
1114 1 1114 -0.0330425 0.0101754
1134 1 1134 -0.0348566 0.00873962
1289 1 1289 -0.0334046 0.0121521
1807 1 1807 -0.0346587 0.0130596
2233 1 2233 -0.0335349 0.0133273
3354 1 3354 -0.0333921 0.00845086
3904 1 3904 -0.0348332 0.0118895
4859 1 4859 -0.0340713 0.00958142
5496 1 5496 -0.0339667 0.0144932
607 1 607 -0.0310802 0.0118701
678 1 678 -0.0314853 0.0105833
1027 1 1027 -0.0325434 0.0141577
1800 1 1800 -0.0313842 0.0152205
2968 1 2968 -0.0320715 0.0126838
4549 1 4549 -0.0323803 0.0114644
5266 1 5266 -0.0311667 0.0135577
5440 1 5440 -0.0320243 0.00924079
4058 1 4058 -0.0308456 0.00894883
5585 1 5585 -0.0362893 0.0155403
5557 1 5557 -0.0325313 0.0156193
881 1 881 -0.0473404 0.0158987
3859 1 3859 -0.045552 0.015983
356 1 356 -0.0470838 0.0187221
1560 1 1560 -0.0464446 0.0171474
2259 1 2259 -0.046616 0.0203427
3282 1 3282 -0.0470452 0.0218148
5299 1 5299 -0.0458757 0.022271
3798 1 3798 -0.0473458 0.0232968
4793 1 4793 -0.0457067 0.0189106
2284 1 2284 -0.0454012 0.020913
579 1 579 -0.0460354 0.0235053
28 1 28 -0.0433702 0.0177159
536 1 536 -0.0443532 0.0194059
1792 1 1792 -0.0439411 0.0211073
3198 1 3198 -0.044964 0.0171835
3460 1 3460 -0.0445631 0.0225294
3820 1 3820 -0.0440011 0.0161528
5370 1 5370 -0.0443979 0.0182425
328 1 328 -0.0415086 0.0220792
492 1 492 -0.0416534 0.0160091
1086 1 1086 -0.0415807 0.019875
2005 1 2005 -0.0427152 0.0166715
2591 1 2591 -0.0430399 0.0226679
4408 1 4408 -0.0416193 0.0177233
4702 1 4702 -0.0425894 0.0186374
5487 1 5487 -0.0431528 0.0197442
5697 1 5697 -0.0425325 0.0211061
5046 1 5046 -0.0407687 0.0187218
37 1 37 -0.0404808 0.0163636
2566 1 2566 -0.0404655 0.0207666
5885 1 5885 -0.0404962 0.0174482
2565 1 2565 -0.0414853 0.0234356
2097 1 2097 -0.0390064 0.015988
1059 1 1059 -0.0401936 0.0225265
5106 1 5106 -0.0398002 0.019735
2221 1 2221 -0.0396113 0.0183179
4418 1 4418 -0.0393789 0.0171175
4854 1 4854 -0.0395054 0.0215824
1307 1 1307 -0.0386458 0.0197983
2942 1 2942 -0.0380526 0.0172782
3983 1 3983 -0.0388923 0.0233006
4701 1 4701 -0.0385547 0.0209898
4741 1 4741 -0.0383761 0.0185164
5980 1 5980 -0.0385746 0.0222493
4524 1 4524 -0.0336451 0.0157373
870 1 870 -0.0376509 0.0157389
1224 1 1224 -0.0377453 0.0231879
137 1 137 -0.0369737 0.0181009
1347 1 1347 -0.0375061 0.0193178
2923 1 2923 -0.0375066 0.021871
3320 1 3320 -0.0371865 0.0205158
3823 1 3823 -0.0359785 0.0189353
3842 1 3842 -0.0366024 0.0168754
5484 1 5484 -0.0363563 0.022123
427 1 427 -0.0350914 0.0162012
3233 1 3233 -0.0356041 0.0207242
4844 1 4844 -0.0348447 0.0192642
4884 1 4884 -0.0349427 0.0224924
4910 1 4910 -0.0354997 0.0175427
1257 1 1257 -0.0322548 0.0230043
1938 1 1938 -0.0342879 0.0181628
2065 1 2065 -0.0341769 0.0202633
3122 1 3122 -0.0330086 0.0178526
3214 1 3214 -0.0333186 0.0224641
4027 1 4027 -0.0333098 0.0192953
4053 1 4053 -0.0328539 0.0167784
4785 1 4785 -0.0332672 0.0211377
5636 1 5636 -0.0340817 0.0169255
530 1 530 -0.0321111 0.0199873
2576 1 2576 -0.0320669 0.0213318
3323 1 3323 -0.0317253 0.0164428
3873 1 3873 -0.0310193 0.0224273
4971 1 4971 -0.031936 0.018473
5204 1 5204 -0.0310386 0.0195823
5520 1 5520 -0.031312 0.0174641
2057 1 2057 -0.0306431 0.0185649
1240 1 1240 -0.0307384 0.0208346
1734 1 1734 -0.0303631 0.016484
3454 1 3454 -0.0477492 0.0265771
466 1 466 -0.0473553 0.0304096
1781 1 1781 -0.0459648 0.0277975
4282 1 4282 -0.0463764 0.0265974
4304 1 4304 -0.0469475 0.0249759
4960 1 4960 -0.0464681 0.0292767
5359 1 5359 -0.0460201 0.0306923
5712 1 5712 -0.0472158 0.0282694
5829 1 5829 -0.0454824 0.0245211
2953 1 2953 -0.0456948 0.0256619
1157 1 1157 -0.0444316 0.0311644
1402 1 1402 -0.0452831 0.0294646
1998 1 1998 -0.0438912 0.0296285
2541 1 2541 -0.0445147 0.0256929
3503 1 3503 -0.0451167 0.0268409
3790 1 3790 -0.0442561 0.0241176
5064 1 5064 -0.0440229 0.0270047
5635 1 5635 -0.0448302 0.0282294
689 1 689 -0.0415416 0.0308983
991 1 991 -0.0433521 0.025518
1559 1 1559 -0.0428441 0.0267591
1789 1 1789 -0.0412313 0.0245725
2058 1 2058 -0.0419573 0.0283692
2623 1 2623 -0.0419821 0.025571
3129 1 3129 -0.0417105 0.0272331
3729 1 3729 -0.0434456 0.028233
4817 1 4817 -0.0427319 0.0241847
4889 1 4889 -0.0429946 0.0308425
5210 1 5210 -0.0424104 0.0297318
2368 1 2368 -0.040791 0.0265209
4472 1 4472 -0.0409358 0.0289896
4384 1 4384 -0.0404306 0.0278434
42 1 42 -0.0399217 0.0238483
1751 1 1751 -0.040197 0.031091
2891 1 2891 -0.0401813 0.0250728
2466 1 2466 -0.038718 0.0299281
4935 1 4935 -0.0398645 0.0292947
5586 1 5586 -0.039552 0.0259728
2925 1 2925 -0.0383071 0.0258641
3013 1 3013 -0.0388423 0.0246441
3793 1 3793 -0.0383646 0.0272038
4987 1 4987 -0.039542 0.0271282
5725 1 5725 -0.0390279 0.0283722
2528 1 2528 -0.0388863 0.0313277
4731 1 4731 -0.0302898 0.0308109
602 1 602 -0.0364916 0.0235986
1072 1 1072 -0.0368186 0.0293205
1425 1 1425 -0.0369562 0.0264511
2166 1 2166 -0.0374885 0.0246686
3283 1 3283 -0.0377471 0.0285992
3914 1 3914 -0.0361673 0.028366
3936 1 3936 -0.0372173 0.0304393
4251 1 4251 -0.0362473 0.02549
5868 1 5868 -0.0371544 0.0275837
243 1 243 -0.0349693 0.0254363
2642 1 2642 -0.0358415 0.0273095
4105 1 4105 -0.0356392 0.0294975
4841 1 4841 -0.0352833 0.0242953
5023 1 5023 -0.0356381 0.0307005
904 1 904 -0.0329083 0.0241278
1178 1 1178 -0.0347453 0.0281011
1383 1 1383 -0.0340953 0.0237476
1967 1 1967 -0.0329738 0.0300003
2827 1 2827 -0.0342266 0.0293269
3056 1 3056 -0.0337142 0.025397
3061 1 3061 -0.034422 0.0309651
3862 1 3862 -0.0332335 0.0284811
4051 1 4051 -0.033794 0.0271634
5688 1 5688 -0.0349286 0.0265744
35 1 35 -0.0323732 0.0267343
1815 1 1815 -0.0309482 0.025326
2874 1 2874 -0.0317368 0.0305123
3153 1 3153 -0.0321093 0.0280314
4507 1 4507 -0.0322548 0.0252484
5103 1 5103 -0.0314846 0.0240731
5762 1 5762 -0.0315854 0.0292438
5872 1 5872 -0.0311035 0.0267007
3982 1 3982 -0.0307522 0.027891
2786 1 2786 -0.030268 0.029574
176 1 176 -0.0473205 0.0361402
420 1 420 -0.0461145 0.036078
894 1 894 -0.0465604 0.0325872
1248 1 1248 -0.0467761 0.0346283
2500 1 2500 -0.0457662 0.0374475
2981 1 2981 -0.0475104 0.033483
3464 1 3464 -0.0468127 0.038142
4694 1 4694 -0.0475247 0.031779
5058 1 5058 -0.0476919 0.0372926
5617 1 5617 -0.0457174 0.0341171
2344 1 2344 -0.0455788 0.0318414
728 1 728 -0.0440624 0.0339796
1001 1 1001 -0.0452742 0.03307
2286 1 2286 -0.0441327 0.0326548
2865 1 2865 -0.0449673 0.0351082
3217 1 3217 -0.0448763 0.0365369
3969 1 3969 -0.0437207 0.0376143
6016 1 6016 -0.043774 0.0361783
5736 1 5736 -0.0447424 0.0380956
1310 1 1310 -0.0426852 0.0369594