ITEM: TIMESTEP
0
ITEM: NUMBER OF ENTRIES
21526
ITEM: BOX BOUNDS ff ff pp
-6.0499999999999998e-02 6.0499999999999998e-02
-5.4986201149790005e-02 5.5003301149790004e-02
-5.4999999999999997e-03 5.4999999999999997e-03
ITEM: ENTRIES c_1[1] c_1[2] c_1[3] c_2[1] c_2[2] c_2[3] c_2[4] c_2[5] c_2[6]
1 2497 4656 0.00119803 2.78359e-05 -1.15872e-05 2.53096e-05 0 2.80355e-09 
2 2497 4301 0.00129365 1.46006e-05 -1.33765e-05 -5.85194e-06 0 7.75783e-10 
2 2497 3759 0.00214724 -0.000110312 -8.99039e-06 -0.000109945 -0 3.97172e-08 
1 2497 2875 0.00159303 -2.65914e-05 -1.55572e-06 2.65458e-05 -0 2.56022e-09 
2 2875 5187 0.00167851 -3.85692e-05 -2.66318e-06 3.84771e-05 -0 5.34377e-09 
2 2875 4301 0.00166825 -3.71218e-05 2.84468e-05 -2.38496e-05 -0 4.95566e-09 
1 2875 3780 0.00158529 -2.55154e-05 1.64927e-05 1.94687e-05 -0 2.35859e-09 
1 3759 4656 0.00124822 2.08703e-05 -1.12643e-05 -1.75694e-05 0 1.58148e-09 
2 829 2474 0.00175515 -4.94969e-05 3.15936e-05 -3.81023e-05 -0 8.71721e-09 
1 829 5485 0.00129079 1.49954e-05 4.99076e-06 1.41405e-05 0 8.18207e-10 
2 829 3759 0.0012627 1.88683e-05 5.00883e-06 -1.81914e-05 0 1.29368e-09 
2 829 4656 0.00229332 -0.000136251 2.01109e-05 0.000134758 -0 5.76971e-08 
2 829 1591 0.00125254 2.02731e-05 -2.01624e-05 -2.11546e-06 0 1.49264e-09 
1 862 4301 0.00121768 2.51031e-05 1.43072e-06 2.50623e-05 0 2.28345e-09 
2 862 5213 0.00222874 -0.000124494 7.87601e-07 0.000124491 -0 4.9281e-08 
2 862 5187 0.00211782 -0.000105354 -7.28136e-05 7.61417e-05 -0 3.65444e-08 
2 862 3270 0.0023285 -0.000142871 8.44646e-05 0.000115229 -0 6.26065e-08 
1 862 3182 0.00124104 2.18641e-05 -1.70415e-05 -1.36977e-05 0 1.73493e-09 
2 862 3780 0.0011136 3.96852e-05 1.15142e-05 -3.79781e-05 0 5.65254e-09 
2 862 1822 0.00154312 -1.96731e-05 1.72926e-05 -9.38063e-06 -0 1.40594e-09 
2 862 2497 0.00214044 -0.000109158 -6.39819e-05 -8.84404e-05 -0 3.89703e-08 
2 1591 2995 0.00214788 -0.000110421 0.000109763 -1.20297e-05 -0 3.9788e-08 
1 1591 5888 0.00119262 2.85897e-05 -2.47968e-05 1.42299e-05 0 2.95616e-09 
1 1591 2474 0.0014871 -1.1952e-05 -1.00786e-06 -1.19094e-05 -0 5.20232e-10 
2 1591 3759 0.00191837 -7.36168e-05 -6.06664e-05 4.17017e-05 -0 1.87469e-08 
1 1591 2101 0.00138428 2.15542e-06 3.45669e-08 -2.15514e-06 0 1.69434e-11 
2 2101 4656 0.00116225 3.28339e-05 2.50014e-05 -2.12837e-05 0 3.88869e-09 
2 2101 2497 0.00230438 -0.000138315 -8.30533e-05 0.000110604 -0 5.92156e-08 
1 2101 3759 0.00158682 -2.57279e-05 -2.5272e-05 -4.8219e-06 -0 2.39776e-09 
1 2101 5715 0.00140533 -7.30136e-07 3.78543e-07 6.24342e-07 -0 1.94431e-12 
2 2474 4934 0.00174337 -4.78041e-05 4.74429e-05 -5.86524e-06 -0 8.14431e-09 
2 2474 5485 0.00155567 -2.14089e-05 -2.13295e-05 1.84271e-06 -0 1.66377e-09 
1 2474 5888 0.00146083 -8.3438e-06 6.62439e-06 5.0731e-06 -0 2.53731e-10 
2 4301 4656 0.00174823 -4.85016e-05 -1.90458e-05 -4.46056e-05 -0 8.37818e-09 
1 4301 5715 0.00148457 -1.16049e-05 7.24715e-06 -9.06382e-06 -0 4.90498e-10 
1 4656 5715 0.00167472 -3.8034e-05 3.6646e-05 1.01812e-05 -0 5.19864e-09 
1 912 1591 0.00145453 -7.47878e-06 -6.16542e-06 -4.23317e-06 -0 2.03877e-10 
2 912 5030 0.00186962 -6.62697e-05 3.36236e-05 5.71062e-05 -0 1.53375e-08 
1 912 5715 0.00183007 -6.04044e-05 -1.62623e-05 5.81741e-05 -0 1.28327e-08 
2 912 2101 0.0013439 7.69381e-06 6.99192e-06 -3.21057e-06 0 2.15763e-10 
2 912 2995 0.00141208 -1.65655e-06 1.09804e-06 -1.24034e-06 -0 1.00082e-11 
2 912 5888 0.00142644 -3.62505e-06 -4.18557e-07 -3.60081e-06 -0 4.79214e-11 
2 1822 3182 0.00156252 -2.23572e-05 -5.5674e-06 2.16529e-05 -0 1.81365e-09 
1 1822 5715 0.00171357 -4.35437e-05 -1.26725e-05 -4.16589e-05 -0 6.78339e-09 
2 1822 4832 0.00162261 -3.0716e-05 1.51269e-05 2.67329e-05 -0 3.40785e-09 
2 1822 4301 0.0015044 -1.43322e-05 -1.35834e-05 -4.57195e-06 -0 7.47588e-10 
2 2995 5682 0.00219134 -0.000117899 7.03413e-05 -9.46169e-05 -0 4.47481e-08 
1 2995 4934 0.00155492 -2.13051e-05 -7.26601e-06 -2.00278e-05 -0 1.64774e-09 
2 4934 5888 0.00124096 2.1875e-05 1.00547e-05 -1.94273e-05 0 1.73664e-09 
1 5030 5307 0.00168765 -3.9863e-05 3.56148e-05 -1.79066e-05 -0 5.70251e-09 
1 5030 5715 0.00144923 -6.75114e-06 -6.7142e-06 7.05286e-07 -0 1.66153e-10 
1 5 5030 0.00122509 2.40749e-05 6.02518e-06 -2.33088e-05 0 2.10132e-09 
2 5 1842 0.00224315 -0.000127075 2.53963e-05 0.000124511 -0 5.10934e-08 
2 5 2995 0.00151628 -1.59689e-05 -3.3617e-06 -1.56111e-05 -0 9.27608e-10 
1 5 5307 0.00127517 1.71475e-05 -1.61528e-05 -5.7554e-06 0 1.06915e-09 
1 5 912 0.0013252 1.02621e-05 9.72e-06 3.29111e-06 0 3.83667e-10 
2 5 1176 0.00139642 4.9074e-07 -3.98413e-07 2.86519e-07 0 8.7834e-13 
2 82 5030 0.00190961 -7.22863e-05 -7.15514e-05 -1.02811e-05 -0 1.81077e-08 
2 82 255 0.0021684 -0.000113929 5.18731e-05 -0.000101434 -0 4.20897e-08 
1 82 1176 0.0023171 -0.000140708 -2.73205e-05 -0.00013803 -0 6.09897e-08 
2 82 4425 0.00225857 -0.000129863 0.000117784 -5.46919e-05 -0 5.30738e-08 
2 82 4786 0.00143984 -5.46233e-06 -4.74214e-07 5.44171e-06 -0 1.08788e-10 
2 82 4455 0.00200791 -8.74972e-05 8.48299e-05 2.14395e-05 -0 2.59556e-08 
1 82 1842 0.00135529 6.1314e-06 5.13616e-06 -3.34871e-06 0 1.3706e-10 
2 82 5307 0.00109841 4.18387e-05 1.45657e-05 3.92214e-05 0 6.27166e-09 
2 255 2854 0.0014901 -1.23649e-05 4.04944e-07 1.23583e-05 -0 5.5674e-10 
2 255 1659 0.00189054 -6.94054e-05 5.23843e-05 -4.55302e-05 -0 1.67565e-08 
1 255 4425 0.00144408 -6.04464e-06 4.44198e-06 4.09958e-06 -0 1.3321e-10 
1 255 5226 0.00187917 -6.76986e-05 6.76383e-05 2.85684e-06 -0 1.59773e-08 
1 255 5307 0.00163942 -3.30687e-05 -2.76282e-05 1.8172e-05 -0 3.94389e-09 
1 255 1176 0.00147742 -1.06224e-05 -1.03332e-05 -2.4618e-06 -0 4.11055e-10 
1 255 1845 0.00194297 -7.73776e-05 -3.62999e-05 -6.83345e-05 -0 2.06039e-08 
2 710 5053 0.00139995 6.34694e-09 -5.9092e-09 -2.31626e-09 0 1.46923e-16 
2 710 1842 0.00132904 9.73505e-06 -1.51699e-06 9.61613e-06 0 3.4531e-10 
2 710 3182 0.00211942 -0.000105621 -9.3665e-05 4.88134e-05 -0 3.67134e-08 
2 710 1822 0.00158311 -2.52126e-05 -2.37361e-05 -8.50129e-06 -0 2.30329e-09 
2 710 4786 0.00136555 4.72343e-06 -4.21098e-06 2.13973e-06 0 8.13531e-11 
2 710 5256 0.00220503 -0.000120295 -1.11129e-05 0.000119781 -0 4.63785e-08 
2 710 4832 0.0011178 3.9091e-05 2.41756e-05 -3.07188e-05 0 5.4871e-09 
1 1176 2995 0.00159869 -2.73791e-05 -2.48823e-05 -1.1423e-05 -0 2.71298e-09 
2 1176 2244 0.00154719 -2.02356e-05 -8.49085e-06 -1.83681e-05 -0 1.48715e-09 
2 1176 5307 0.00124513 2.12976e-05 -1.15457e-06 -2.12663e-05 0 1.6466e-09 
1 1176 5682 0.00242996 -0.000162916 -9.755e-06 -0.000162624 -0 7.81065e-08 
1 1176 1845 0.00147067 -9.69419e-06 3.46525e-06 -9.05369e-06 -0 3.42421e-10 
2 1842 2834 0.00199183 -8.49645e-05 8.48436e-05 4.53011e-06 -0 2.45693e-08 
1 1842 5053 0.00212785 -0.000107035 5.51461e-05 9.17358e-05 -0 3.761e-08 
2 1842 4832 0.00236822 -0.000150543 -5.71094e-05 0.00013929 -0 6.84334e-08 
2 1842 5307 0.00192338 -7.43796e-05 2.91156e-05 -6.84442e-05 -0 1.91175e-08 
1 1842 4786 0.00122581 2.3974e-05 -1.9759e-05 -1.35769e-05 0 2.08384e-09 
2 1845 5682 0.00124797 2.09051e-05 1.12435e-05 1.76241e-05 0 1.58673e-09 
2 1845 3514 0.0012534 2.01539e-05 -1.35276e-05 1.49393e-05 0 1.47521e-09 
1 1845 2244 0.00117531 3.1007e-05 3.09963e-05 8.15205e-07 0 3.47209e-09 
1 1845 2995 0.00210095 -0.000102547 -9.65754e-05 3.44843e-05 -0 3.47912e-08 
2 1845 4600 0.00122975 2.34277e-05 -2.31714e-05 -3.45581e-06 0 1.99049e-09 
1 2244 5682 0.00113867 3.6147e-05 -1.599e-05 3.2418e-05 0 4.70221e-09 
2 2244 2995 0.00109073 4.2931e-05 3.16335e-05 -2.9024e-05 0 6.59731e-09 
2 2244 5888 0.00194151 -7.71532e-05 -7.56784e-05 1.50133e-05 -0 2.04911e-08 
1 2244 3514 0.00220722 -0.000120681 0.000110237 -4.91095e-05 -0 4.66426e-08 
1 2244 4934 0.00151795 -1.6199e-05 -1.4236e-05 -7.72946e-06 -0 9.54455e-10 
2 2834 4455 0.00114902 3.46909e-05 -3.29996e-05 1.07e-05 0 4.33551e-09 
2 2834 5307 0.00224671 -0.000127715 -7.02668e-05 -0.000106648 -0 5.15462e-08 
2 2834 4786 0.00114175 3.57129e-05 3.06128e-05 -1.83921e-05 0 4.59138e-09 
2 2834 2854 0.00130055 1.36507e-05 -1.91449e-06 1.35158e-05 0 6.78318e-10 
2 2834 5053 0.00193564 -7.62532e-05 -3.51672e-05 6.76595e-05 -0 2.0041e-08 
1 2834 3154 0.00185729 -6.44321e-05 5.64882e-05 3.09934e-05 -0 1.45316e-08 
1 2834 4425 0.00215845 -0.000112222 6.21199e-05 -9.34607e-05 -0 4.09643e-08 
2 2854 5307 0.00153569 -1.86472e-05 -1.72241e-05 -7.14465e-06 -0 1.26364e-09 
2 2854 4786 0.00220599 -0.000120465 -6.34053e-05 0.000102428 -0 4.64945e-08 
2 2854 4455 0.00130393 1.31858e-05 -9.20828e-06 -9.43783e-06 0 6.32979e-10 
1 3514 4600 0.00117211 3.14544e-05 -1.00634e-05 -2.98011e-05 0 3.572e-09 
2 3514 5682 0.00151749 -1.61363e-05 -1.60832e-05 -1.30792e-06 -0 9.47098e-10 
1 4786 5053 0.00113277 3.69779e-05 -2.80737e-06 -3.68712e-05 0 4.91785e-09 
1 5053 5538 0.00170306 -4.20485e-05 5.61696e-06 4.16717e-05 -0 6.3336e-09 
2 5053 5256 0.00226043 -0.000130202 -8.68096e-05 9.70395e-05 -0 5.33164e-08 
1 4425 5226 0.00121512 2.54581e-05 -1.71023e-05 1.8858e-05 0 2.34806e-09 
1 4425 4455 0.00144679 -6.41577e-06 -4.51432e-07 6.39987e-06 -0 1.50062e-10 
1 4832 5256 0.00140455 -6.24201e-07 2.16696e-07 5.85381e-07 -0 1.42104e-12 
1 1659 3514 0.00205299 -9.47022e-05 -6.90595e-05 -6.48019e-05 -0 3.00618e-08 
2 1659 4600 0.00116005 3.31427e-05 3.20584e-05 8.40815e-06 0 3.96136e-09 
2 1659 3415 0.00118469 2.96958e-05 -4.89293e-06 2.92899e-05 0 3.18722e-09 
1 1659 4425 0.00224952 -0.000128224 -2.0845e-05 0.000126518 -0 5.19067e-08 
2 1659 5226 0.00139432 7.79058e-07 -2.51767e-07 -7.37255e-07 0 2.21359e-12 
1 3154 4455 0.00135777 5.79013e-06 2.28275e-06 5.32115e-06 0 1.22232e-10 
2 3154 4229 0.00143229 -4.42783e-06 2.9554e-07 4.41796e-06 -0 7.14914e-11 
2 3415 4600 0.00158098 -2.49172e-05 -2.07614e-05 1.37779e-05 -0 2.24998e-09 
2 3415 3514 0.00170872 -4.28525e-05 -4.24407e-05 -5.9261e-06 -0 6.57364e-09 
2 75 1641 0.00148518 -1.16881e-05 -8.03979e-06 -8.48365e-06 -0 4.97541e-10 
1 75 1584 0.00168814 -3.99325e-05 -4.39267e-06 3.96902e-05 -0 5.72209e-09 
1 75 634 0.00214053 -0.000109173 7.09604e-05 8.29665e-05 -0 3.89805e-08 
2 75 3154 0.00169484 -4.08813e-05 -3.78339e-05 1.54881e-05 -0 5.99264e-09 
2 75 1456 0.002014 -8.84621e-05 -8.53872e-06 -8.8049e-05 -0 2.64917e-08 
2 75 4836 0.00132386 1.04455e-05 -1.0142e-05 -2.4996e-06 0 3.9749e-10 
2 111 303 0.00132897 9.74414e-06 -9.52367e-06 2.06105e-06 0 3.45955e-10 
1 111 1456 0.00179858 -5.57897e-05 3.75637e-06 5.56631e-05 -0 1.10034e-08 
2 111 3415 0.00198738 -8.42667e-05 -4.77264e-05 -6.94483e-05 -0 2.41927e-08 
2 111 5226 0.00121652 2.52643e-05 1.8072e-05 -1.76546e-05 0 2.31268e-09 
1 111 1659 0.00140173 -2.37266e-07 -2.23567e-07 -7.94538e-08 -0 2.0532e-13 
1 111 2270 0.00136411 4.92106e-06 -3.8615e-06 -3.05052e-06 0 8.83016e-11 
2 111 918 0.00174329 -4.77919e-05 7.83516e-06 -4.71453e-05 -0 8.14026e-09 
2 918 5916 0.00135909 5.60935e-06 -5.59824e-06 3.52882e-07 0 1.14721e-10 
2 918 3415 0.00141377 -1.88758e-06 -1.88442e-06 1.09215e-07 -0 1.29944e-11 
2 1456 4425 0.00180814 -5.7186e-05 -5.71688e-05 -1.40107e-06 -0 1.15435e-08 
2 1456 1641 0.00124211 2.17152e-05 1.44615e-05 -1.61992e-05 0 1.71148e-09 
2 1456 5226 0.00136915 4.23003e-06 3.06265e-06 2.91775e-06 0 6.52477e-11 
2 1456 2270 0.00134223 7.92319e-06 -5.60372e-06 5.60136e-06 0 2.28811e-10 
2 1641 4455 0.00118077 3.0243e-05 2.77183e-05 -1.2097e-05 0 3.30468e-09 
2 1641 4425 0.00137979 2.77024e-06 1.96837e-06 1.9493e-06 0 2.79872e-11 
1 1641 2854 0.00204543 -9.34823e-05 -9.10771e-05 -2.10691e-05 -0 2.93502e-08 
1 1641 5226 0.00187818 -6.75501e-05 -5.90196e-06 -6.72917e-05 -0 1.59103e-08 
1 1641 3154 0.00180495 -5.67192e-05 -1.71859e-05 5.40529e-05 -0 1.13617e-08 
2 2270 5226 0.00194061 -7.70139e-05 -7.70137e-05 1.78585e-07 -0 2.04211e-08 
2 2270 4493 0.00150024 -1.37594e-05 1.17946e-05 7.0859e-06 -0 6.8914e-10 
2 2270 4950 0.00134601 7.40378e-06 -6.89491e-06 2.69746e-06 0 1.99811e-10 
2 1584 4229 0.00134595 7.41325e-06 7.08969e-06 -2.16623e-06 0 2.00322e-10 
2 1584 3154 0.00172772 -4.55623e-05 -3.64663e-05 -2.73154e-05 -0 7.41366e-09 
2 32 4493 0.00127733 1.68499e-05 -1.29039e-05 1.08355e-05 0 1.03247e-09 
2 32 4836 0.00169103 -4.03409e-05 5.3127e-06 3.99896e-05 -0 5.83782e-09 
2 32 1456 0.00141296 -1.77667e-06 -1.58069e-06 -8.11154e-07 -0 1.15122e-11 
1 32 3406 0.00157956 -2.47203e-05 1.95235e-05 1.51634e-05 -0 2.21479e-09 
1 32 4950 0.0022889 -0.00013543 5.59555e-05 -0.00012333 -0 5.70971e-08 
1 32 75 0.00172556 -4.52542e-05 -2.78701e-05 3.56539e-05 -0 7.31575e-09 
2 32 2270 0.00162345 -3.08325e-05 -5.84575e-06 -3.02733e-05 -0 3.43351e-09 
2 303 5916 0.00156229 -2.23244e-05 4.90561e-06 -2.17787e-05 -0 1.80836e-09 
2 303 2270 0.00114964 3.46043e-05 6.8779e-06 -3.39139e-05 0 4.31415e-09 
2 303 918 0.00175953 -5.01281e-05 -2.88627e-05 -4.0985e-05 -0 8.93544e-09 
1 303 4493 0.00217386 -0.000114868 5.58788e-05 0.00010036 -0 4.27133e-08 
1 303 4950 0.00120644 2.6665e-05 -2.26547e-05 -1.40636e-05 0 2.57431e-09 
2 634 4836 0.00131417 1.17773e-05 9.49051e-07 1.1739e-05 0 5.05159e-10 
2 634 4595 0.00166065 -3.60516e-05 2.71344e-05 2.37369e-05 -0 4.67773e-09 
2 634 3406 0.00221673 -0.000122359 5.07213e-05 -0.000111351 -0 4.77977e-08 
1 634 1584 0.00157783 -2.44797e-05 -2.44668e-05 7.94358e-07 -0 2.17215e-09 
2 4493 4950 0.00126342 1.87697e-05 4.8283e-07 1.87635e-05 0 1.28025e-09 
2 4950 5916 0.0022654 -0.000131107 -3.94525e-05 -0.00012503 -0 5.39653e-08 
2 292 2719 0.00206301 -9.63257e-05 4.4712e-05 8.53198e-05 -0 3.10191e-08 
2 292 5668 0.00135025 6.82234e-06 -3.35142e-06 5.94241e-06 0 1.69674e-10 
1 292 2270 0.00238929 -0.000154701 -9.76137e-05 0.000120016 -0 7.16481e-08 
1 292 5916 0.00122933 2.34865e-05 1.78786e-05 1.52306e-05 0 2.00043e-09 
1 292 303 0.00147122 -9.76973e-06 -8.49396e-06 4.82703e-06 -0 3.47772e-10 
2 292 4950 0.00138668 1.82612e-06 3.34624e-07 -1.7952e-06 0 1.21619e-11 
1 588 4400 0.00203768 -9.22371e-05 5.47852e-05 7.42042e-05 -0 2.86306e-08 
1 588 634 0.0014217 -2.97522e-06 -2.85845e-06 8.25369e-07 -0 3.22819e-11 
2 588 3406 0.00168333 -3.92517e-05 -1.04231e-05 -3.78425e-05 -0 5.53162e-09 
1 588 4836 0.0017333 -4.63607e-05 -3.93663e-05 -2.44869e-05 -0 7.6702e-09 
2 588 4595 0.00149232 -1.26697e-05 -9.84833e-07 1.26313e-05 -0 5.84478e-10 
1 588 5769 0.00150205 -1.40086e-05 8.21838e-06 -1.13446e-05 -0 7.14277e-10 
2 2719 2869 0.00125038 2.0571e-05 -2.04166e-05 2.51547e-06 0 1.53664e-09 
1 2719 3766 0.00148578 -1.17716e-05 9.63412e-07 1.17321e-05 -0 5.04666e-10 
1 2719 4950 0.00129754 1.40658e-05 1.31353e-05 5.03102e-06 0 7.20111e-10 
1 2719 4493 0.00142434 -3.33751e-06 -2.76309e-06 1.87198e-06 -0 4.06215e-11 
2 3406 5769 0.00138901 1.50623e-06 -1.44028e-06 -4.40803e-07 0 8.27429e-12 
1 3406 3766 0.00151411 -1.56707e-05 1.06757e-05 -1.14716e-05 -0 8.93367e-10 
1 3406 4493 0.00181044 -5.75222e-05 -8.55633e-06 -5.68823e-05 -0 1.16753e-08 
2 3406 4836 0.00124524 2.12821e-05 1.75146e-05 -1.209e-05 0 1.64422e-09 
2 5668 5916 0.00164338 -3.36235e-05 -3.27176e-05 7.7523e-06 -0 4.07581e-09 
1 279 2719 0.00198153 -8.3351e-05 -1.83525e-05 8.13055e-05 -0 2.37022e-08 
1 279 1509 0.00134752 7.19651e-06 -5.83507e-06 4.21208e-06 0 1.88786e-10 
2 279 2869 0.00195344 -7.899e-05 3.25391e-05 7.19765e-05 -0 2.14225e-08 
2 279 5668 0.00129605 1.42707e-05 8.04455e-06 1.17871e-05 0 7.41193e-10 
1 279 2514 0.00134527 7.50579e-06 -6.78509e-06 -3.20926e-06 0 2.05352e-10 
2 279 292 0.00139789 2.88669e-07 2.87844e-07 -2.18067e-08 0 3.0392e-13 
1 324 5769 0.00156574 -2.2803e-05 -7.06924e-06 -2.16796e-05 -0 1.88631e-09 
2 324 4400 0.00137601 3.28964e-06 3.73669e-07 -3.26834e-06 0 3.94645e-11 
2 324 588 0.00139344 8.98667e-07 8.81354e-07 1.75548e-07 0 2.94546e-12 
2 324 1876 0.00197093 -8.16994e-05 2.55594e-05 -7.75984e-05 -0 2.28277e-08 
2 324 4595 0.00191723 -7.34433e-05 -5.67938e-05 4.65659e-05 -0 1.8663e-08 
1 324 663 0.00224428 -0.000127278 5.87709e-05 0.000112897 -0 5.1237e-08 
2 324 5380 0.00152342 -1.69533e-05 1.58714e-05 -5.95929e-06 -0 1.04515e-09 
2 786 2869 0.00143888 -5.33182e-06 -4.85794e-07 -5.30965e-06 -0 1.03653e-10 
1 786 1876 0.00134052 8.15832e-06 -9.01938e-07 -8.10831e-06 0 2.42584e-10 
2 786 2719 0.00187645 -6.72904e-05 -4.92042e-05 -4.59014e-05 -0 1.57934e-08 
2 786 5394 0.00195761 -7.96339e-05 5.11255e-05 6.10553e-05 -0 2.17532e-08 
1 786 3766 0.00126652 1.83416e-05 1.81096e-05 -2.90796e-06 0 1.2227e-09 
1 786 5769 0.001963 -8.04675e-05 -3.90983e-05 7.03303e-05 -0 2.21843e-08 
2 786 4104 0.00129853 1.39289e-05 -1.3832e-05 -1.6401e-06 0 7.06185e-10 
1 1509 5668 0.00184485 -6.25866e-05 -6.18522e-05 -9.56008e-06 -0 1.37415e-08 
2 1509 2514 0.00136948 4.18453e-06 -3.77362e-07 -4.16748e-06 0 6.38521e-11 
2 1509 5458 0.00118563 2.95643e-05 -2.94014e-05 -3.09948e-06 0 3.15932e-09 
2 1509 3187 0.00230404 -0.000138251 0.000137972 -8.76653e-06 -0 5.91681e-08 
1 1509 1635 0.00209066 -0.000100847 6.48883e-05 7.71983e-05 -0 3.37442e-08 
2 1876 3766 0.00179907 -5.5861e-05 -4.34295e-05 -3.5133e-05 -0 1.10307e-08 
1 1876 5394 0.00112135 3.85899e-05 -3.81512e-05 -5.80217e-06 0 5.34942e-09 
2 1876 3135 0.00227285 -0.000132471 0.000130113 2.48814e-05 -0 5.49471e-08 
2 1876 5769 0.00116679 3.21985e-05 3.04106e-05 -1.05802e-05 0 3.74122e-09 
1 1876 5380 0.00156259 -2.23664e-05 1.15884e-05 1.91303e-05 -0 1.81514e-09 
2 1876 4104 0.0016412 -3.33188e-05 2.317e-05 -2.39435e-05 -0 4.00309e-09 
2 2514 2869 0.0012731 1.74329e-05 5.63339e-06 -1.64976e-05 0 1.10493e-09 
2 2514 5458 0.00162816 -3.14915e-05 2.04172e-05 -2.39761e-05 -0 3.58036e-09 
2 2869 3766 0.00198041 -8.31764e-05 -4.70143e-05 6.86147e-05 -0 2.36091e-08 
2 2869 4104 0.00212905 -0.000107237 7.15534e-05 7.98743e-05 -0 3.77386e-08 
2 3766 4493 0.0014687 -9.42343e-06 -8.34617e-06 -4.3752e-06 -0 3.23577e-10 
1 3766 5769 0.00154368 -1.97505e-05 3.79611e-06 1.93823e-05 -0 1.41699e-09 
2 187 1635 0.00122024 2.47468e-05 2.47439e-05 -3.81268e-07 0 2.21951e-09 
2 187 721 0.00198566 -8.39964e-05 -6.60073e-05 5.19463e-05 -0 2.40475e-08 
2 187 484 0.00190929 -7.22378e-05 7.08041e-05 -1.43205e-05 -0 1.80846e-08 
2 187 5458 0.00201129 -8.80314e-05 -6.06722e-05 -6.37841e-05 -0 2.62519e-08 
1 187 3663 0.00209009 -0.000100753 5.13386e-05 -8.66923e-05 -0 3.36869e-08 
1 187 5252 0.00201125 -8.80251e-05 3.77967e-05 7.94974e-05 -0 2.62484e-08 
2 187 2722 0.00117521 3.10201e-05 -2.73218e-05 -1.4689e-05 0 3.475e-09 
1 187 3187 0.00174804 -4.84747e-05 -7.37364e-06 -4.79107e-05 -0 8.36912e-09 
2 721 1117 0.00208 -9.90965e-05 7.05395e-05 6.9601e-05 -0 3.2679e-08 
2 721 5914 0.00123513 2.26819e-05 -2.22993e-05 -4.14841e-06 0 1.86643e-09 
1 721 786 0.00166446 -3.65868e-05 -2.55356e-05 2.62016e-05 -0 4.81576e-09 
1 721 2869 0.00131505 1.16564e-05 1.14592e-05 2.1353e-06 0 4.94856e-10 
1 721 2514 0.0016932 -4.06482e-05 -2.11596e-05 -3.47066e-05 -0 5.92562e-09 
1 721 4104 0.00135096 6.72527e-06 -6.36207e-07 -6.69511e-06 0 1.64883e-10 
2 721 1635 0.00125617 1.97707e-05 -5.35594e-06 1.90314e-05 0 1.41988e-09 
2 1117 3135 0.0015131 -1.55313e-05 -2.68623e-06 1.52972e-05 -0 8.77588e-10 
2 1117 2722 0.00240627 -0.000158101 7.32529e-05 -0.000140106 -0 7.43041e-08 
1 1117 5394 0.00185403 -6.39481e-05 -4.77878e-05 4.24934e-05 -0 1.43225e-08 
2 1117 5252 0.00128501 1.57908e-05 -1.15929e-05 1.07217e-05 0 9.07083e-10 
2 1117 5914 0.00126338 1.87744e-05 3.95732e-06 1.83526e-05 0 1.28088e-09 
1 1117 4104 0.00135776 5.7915e-06 5.77032e-06 4.94794e-07 0 1.2229e-10 
2 1117 3111 0.00174506 -4.80466e-05 4.7486e-05 7.31825e-06 -0 8.22529e-09 
1 1635 5914 0.00168029 -3.88218e-05 2.01931e-05 3.31568e-05 -0 5.41295e-09 
1 1635 3187 0.00199017 -8.47028e-05 4.06114e-05 -7.43323e-05 -0 2.44278e-08 
2 1635 2514 0.00124438 2.14015e-05 2.10114e-05 4.06744e-06 0 1.66262e-09 
2 1635 5458 0.00148542 -1.17209e-05 -1.31064e-06 -1.16474e-05 -0 5.00338e-10 
1 3135 4104 0.00194183 -7.72017e-05 -4.33791e-05 -6.38621e-05 -0 2.05155e-08 
1 3135 3598 0.00121428 2.55747e-05 2.98231e-06 -2.54002e-05 0 2.36948e-09 
1 3135 5380 0.00168871 -4.00121e-05 -3.37118e-05 2.1552e-05 -0 5.74457e-09 
1 3135 3910 0.00128191 1.6219e-05 -1.62189e-05 -5.18743e-08 0 9.5681e-10 
1 3135 5350 0.00183142 -6.0603e-05 4.43846e-05 4.12641e-05 -0 1.29143e-08 
2 3187 3663 0.00133278 9.22118e-06 -9.20819e-06 4.89157e-07 0 3.09849e-10 
2 3187 5458 0.00115247 3.42064e-05 3.32515e-05 -8.02572e-06 0 4.21666e-09 
2 3598 5350 0.00148347 -1.14529e-05 1.14486e-05 3.16536e-07 -0 4.77753e-10 
1 3598 3910 0.00186304 -6.52879e-05 4.98848e-05 -4.21191e-05 -0 1.49045e-08 
1 3598 5380 0.00131504 1.16584e-05 1.13584e-05 2.62772e-06 0 4.95026e-10 
1 3598 5394 0.0017632 -5.06583e-05 -2.82194e-05 -4.20705e-05 -0 9.12069e-09 
1 4104 5914 0.00155969 -2.19654e-05 1.53014e-05 -1.57591e-05 -0 1.75095e-09 
1 4104 5394 0.0013484 7.07684e-06 1.71621e-07 -7.07475e-06 0 1.82563e-10 
1 5380 5394 0.00120557 2.67867e-05 -6.64354e-06 2.59498e-05 0 2.59771e-09 
2 5394 5769 0.00222101 -0.000123118 -0.000122541 1.19071e-05 -0 4.83236e-08 
1 3910 5350 0.00124432 2.14101e-05 -1.02205e-06 -2.13856e-05 0 1.66394e-09 
1 5252 5743 0.00126804 1.81314e-05 -1.64979e-05 7.52112e-06 0 1.19493e-09 
1 5252 5914 0.00126285 1.88487e-05 1.80555e-05 5.41053e-06 0 1.29101e-09 
1 1161 4338 0.00175481 -4.94487e-05 1.71722e-05 -4.63712e-05 -0 8.70064e-09 
2 1161 3571 0.00180098 -5.6139e-05 2.81821e-05 4.85526e-05 -0 1.11374e-08 
1 5187 5213 0.00163439 -3.23641e-05 2.92633e-05 1.38237e-05 -0 3.77938e-09 
2 325 1161 0.00135692 5.90667e-06 5.90612e-06 8.00949e-08 0 1.272e-10 
1 325 3900 0.00126709 1.82625e-05 -1.6657e-05 -7.4875e-06 0 1.21222e-09 
2 325 4338 0.00182414 -5.95323e-05 -2.43919e-05 -5.43058e-05 -0 1.24773e-08 
2 325 4098 0.00181357 -5.798e-05 5.51133e-05 -1.80056e-05 -0 1.18559e-08 
1 325 927 0.00188422 -6.8456e-05 2.63801e-05 6.3169e-05 -0 1.63211e-08 
2 325 3571 0.00160439 -2.81734e-05 -7.94948e-06 2.70286e-05 -0 2.87138e-09 
2 325 5474 0.0014009 -1.23606e-07 4.32607e-08 -1.15788e-07 -0 5.57234e-14 
2 1282 5474 0.00131145 1.21517e-05 1.8439e-07 -1.21503e-05 0 5.37736e-10 
2 1282 5450 0.00169225 -4.05145e-05 -3.9637e-05 -8.38659e-06 -0 5.88735e-09 
2 1282 2978 0.00231433 -0.000140185 -8.98476e-05 -0.000107608 -0 6.06013e-08 
2 1282 4338 0.00158189 -2.50439e-05 -1.99098e-05 1.5192e-05 -0 2.27277e-09 
1 1282 1660 0.0011275 3.7721e-05 1.45297e-05 3.48104e-05 0 5.11465e-09 
2 1282 3782 0.0015296 -1.78064e-05 1.41859e-05 1.07623e-05 -0 1.15262e-09 
2 1282 4627 0.00207839 -9.88334e-05 3.20886e-05 -9.34793e-05 -0 3.252e-08 
2 1660 5474 0.00238803 -0.000154451 2.68022e-05 0.000152108 -0 7.1454e-08 
2 1660 4338 0.00216292 -0.000112987 -4.30077e-05 0.000104482 -0 4.14675e-08 
2 1660 5213 0.00175845 -4.9972e-05 -3.60912e-07 -4.99707e-05 -0 8.88124e-09 
1 1660 5450 0.00140284 -3.88835e-07 -3.38517e-07 1.91308e-07 -0 5.51429e-13 
2 1660 2978 0.00128144 1.62829e-05 1.33293e-05 9.3521e-06 0 9.64338e-10 
2 1660 4627 0.0014444 -6.08801e-06 4.67477e-06 -3.90006e-06 -0 1.35128e-10 
2 2978 5450 0.00143657 -5.01432e-06 -6.0141e-07 4.97812e-06 -0 9.16792e-11 
1 2978 5187 0.00177624 -5.25434e-05 -1.30601e-05 -5.08944e-05 -0 9.79351e-09 
1 2978 5213 0.00145575 -7.64647e-06 5.44325e-06 -5.37024e-06 -0 2.13117e-10 
1 3780 5213 0.0012109 2.60454e-05 -7.25289e-06 -2.50152e-05 0 2.45689e-09 
1 3780 4301 0.00229546 -0.000136649 1.51028e-05 -0.000135812 -0 5.79896e-08 
1 3780 5187 0.00123171 2.31569e-05 2.1444e-05 -8.74043e-06 0 1.94499e-09 
2 4338 5474 0.0012867 1.55586e-05 -1.49661e-05 -4.2527e-06 0 8.80665e-10 
2 4338 5450 0.00136903 4.2463e-06 1.23447e-06 4.0629e-06 0 6.57508e-11 
2 3900 5216 0.00159256 -2.65257e-05 2.59468e-05 -5.51148e-06 -0 2.54768e-09 
1 3900 4098 0.00122274 2.44006e-05 -1.13388e-05 2.16061e-05 0 2.15822e-09 
2 3900 5474 0.00194891 -7.82909e-05 -2.67302e-05 -7.35864e-05 -0 2.1066e-08 
2 3182 4832 0.00119249 2.86075e-05 -2.85045e-05 2.42535e-06 0 2.9598e-09 
1 3182 3270 0.00117415 3.11687e-05 -1.08652e-05 -2.92137e-05 0 3.50806e-09 
2 3182 5213 0.00173625 -4.67832e-05 -2.56839e-05 3.91025e-05 -0 7.8076e-09 
1 3182 4627 0.00229051 -0.000135729 9.99076e-06 0.000135361 -0 5.73156e-08 
2 3182 3780 0.00132219 1.06752e-05 1.04185e-05 -2.32689e-06 0 4.15146e-10 
1 3270 3780 0.00188383 -6.83968e-05 -6.17115e-05 -2.94924e-05 -0 1.62941e-08 
2 3270 4627 0.00120802 2.64451e-05 5.26922e-06 -2.59149e-05 0 2.53234e-09 
2 3270 5213 0.00140691 -9.47355e-07 -9.17451e-07 2.36147e-07 -0 3.27327e-12 
2 3270 5256 0.00127176 1.76176e-05 -1.75447e-05 -1.60139e-06 0 1.12839e-09 
1 4627 5256 0.00184735 -6.2957e-05 5.13648e-05 -3.64038e-05 -0 1.38985e-08 
1 4627 5213 0.00139732 3.6801e-07 2.95448e-07 2.19413e-07 0 4.93945e-13 
1 2098 4786 0.00202028 -8.94593e-05 -5.44651e-05 -7.09685e-05 -0 2.70504e-08 
2 2098 5493 0.00211561 -0.000104985 -6.61982e-06 0.000104776 -0 3.63122e-08 
2 2098 5538 0.00152159 -1.67006e-05 -1.00593e-05 1.33312e-05 -0 1.0143e-09 
2 2098 3154 0.00189186 -6.96034e-05 5.06613e-05 -4.77291e-05 -0 1.68479e-08 
2 2098 5053 0.001238 2.22843e-05 2.05922e-05 8.51768e-06 0 1.8019e-09 
2 2098 4229 0.00147849 -1.07684e-05 1.07256e-05 9.59954e-07 -0 4.22418e-10 
2 1261 3270 0.00235141 -0.000147269 -2.01481e-05 -0.000145885 -0 6.59299e-08 
1 1261 5194 0.00141117 -1.53097e-06 1.04291e-06 1.12081e-06 -0 8.54838e-12 
2 1261 3809 0.00196542 -8.08426e-05 8.02167e-05 1.00405e-05 -0 2.23794e-08 
2 1261 1660 0.00168594 -3.96207e-05 -3.92813e-05 -5.17484e-06 -0 5.63447e-09 
1 1261 3782 0.0017449 -4.80233e-05 -5.11911e-07 4.80206e-05 -0 8.21749e-09 
2 1261 4627 0.00127611 1.70178e-05 7.49999e-06 1.5276e-05 0 1.05309e-09 
2 1261 1282 0.00148444 -1.15865e-05 -9.65669e-06 6.40267e-06 -0 4.88941e-10 
2 1261 3291 0.00133843 8.44421e-06 -6.47936e-06 5.41503e-06 0 2.5987e-10 
1 3782 5474 0.0012975 1.40716e-05 1.34318e-05 -4.19493e-06 0 7.20703e-10 
2 3782 5216 0.00212909 -0.000107244 4.96001e-05 9.50849e-05 -0 3.77431e-08 
1 3782 3900 0.00229143 -0.000135899 -3.39891e-05 0.00013158 -0 5.74394e-08 
2 3782 5194 0.00121108 2.60197e-05 -2.10528e-05 1.52906e-05 0 2.45208e-09 
2 3782 4098 0.00113591 3.65353e-05 1.57603e-07 -3.65349e-05 0 4.80239e-09 
2 4098 5216 0.00124278 2.16225e-05 -1.72175e-05 -1.30801e-05 0 1.69697e-09 
1 4098 5194 0.00209367 -0.000101344 4.76691e-05 -8.94327e-05 -0 3.40489e-08 
1 4098 5474 0.00144323 -5.92823e-06 -5.06714e-06 -3.07701e-06 -0 1.2813e-10 
2 5256 5538 0.0017346 -4.65469e-05 4.65469e-05 8.31865e-08 -0 7.73063e-09 
2 167 3270 0.00217293 -0.000114708 -0.000108768 3.64353e-05 -0 4.26071e-08 
1 167 5256 0.00113119 3.72006e-05 2.61084e-05 -2.64997e-05 0 4.97643e-09 
2 167 710 0.00150993 -1.50938e-05 -5.89986e-06 -1.3893e-05 -0 8.28957e-10 
2 167 4786 0.00210406 -0.000103062 3.07218e-05 -9.83764e-05 -0 3.51103e-08 
2 167 2074 0.00217767 -0.000115527 3.01115e-05 0.000111533 -0 4.3153e-08 
1 167 2098 0.001901 -7.09821e-05 6.93468e-05 -1.51486e-05 -0 1.74904e-08 
2 167 4832 0.00137977 2.77316e-06 2.57564e-06 1.02785e-06 0 2.80463e-11 
2 167 5053 0.00113187 3.71053e-05 -2.33804e-05 2.88125e-05 0 4.95133e-09 
2 2074 5493 0.00122236 2.44529e-05 -2.31294e-05 7.93584e-06 0 2.16742e-09 
1 2074 5538 0.00134623 7.37363e-06 -2.04355e-06 7.0848e-06 0 1.98188e-10 
2 2074 3291 0.00128065 1.63921e-05 1.63749e-05 -7.52632e-07 0 9.7729e-10 
1 2074 5764 0.00232773 -0.000142725 3.05348e-06 0.000142692 -0 6.2497e-08 
1 2074 3809 0.00121458 2.55343e-05 7.48637e-06 -2.44122e-05 0 2.36205e-09 
2 2648 3809 0.00159747 -2.72087e-05 -2.54073e-05 -9.73573e-06 -0 2.67957e-09 
2 2648 4373 0.00141045 -1.43238e-06 5.77846e-08 1.43121e-06 -0 7.48282e-12 
2 2648 5998 0.00121519 2.5449e-05 -2.44209e-05 -7.1602e-06 0 2.34639e-09 
2 2648 4371 0.00207338 -9.80136e-05 6.92399e-05 6.93722e-05 -0 3.20264e-08 
2 2648 5493 0.0021296 -0.000107329 1.03821e-06 -0.000107324 -0 3.77973e-08 
2 2648 5764 0.00123785 2.23056e-05 1.95657e-05 -1.07109e-05 0 1.80533e-09 
2 2831 4098 0.00164685 -3.41116e-05 -3.24306e-05 1.05761e-05 -0 4.1936e-09 
1 2831 5194 0.00145774 -7.91946e-06 -3.15585e-06 -7.2635e-06 -0 2.28596e-10 
2 2831 5177 0.00148859 -1.21578e-05 1.01128e-05 6.74866e-06 -0 5.38278e-10 
2 2831 5764 0.00125858 1.94375e-05 -1.25698e-05 1.48262e-05 0 1.3726e-09 
2 2831 3809 0.0021648 -0.000113309 2.13553e-05 -0.000111278 -0 4.16797e-08 
2 2831 4373 0.00196197 -8.03087e-05 8.00888e-05 -5.93933e-06 -0 2.21019e-08 
1 2831 3782 0.0016814 -3.89778e-05 -3.61821e-05 -1.44956e-05 -0 5.45586e-09 
1 3291 5538 0.00213521 -0.000108275 8.37919e-05 -6.85741e-05 -0 3.84026e-08 
1 3291 5194 0.00189254 -6.97067e-05 -2.41988e-06 6.96647e-05 -0 1.68957e-08 
1 3291 4627 0.00161514 -2.96723e-05 -2.91994e-05 -5.27625e-06 -0 3.18223e-09 
2 3291 5256 0.00135789 5.77421e-06 3.49542e-07 5.76362e-06 0 1.21561e-10 
2 3291 3809 0.00143791 -5.19805e-06 3.33737e-06 3.98518e-06 -0 9.85187e-11 
2 3809 5764 0.00123463 2.27517e-05 -7.47991e-06 -2.1487e-05 0 1.87788e-09 
1 3809 5194 0.00126509 1.85393e-05 1.44919e-05 -1.15625e-05 0 1.24912e-09 
2 3809 5493 0.0021712 -0.00011441 7.96894e-05 -8.20923e-05 -0 4.24088e-08 
2 4373 5177 0.00120819 2.64222e-05 1.57109e-05 -2.12439e-05 0 2.52799e-09 
2 4373 5764 0.0014035 -4.80458e-07 -3.91177e-07 -2.78962e-07 -0 8.41917e-13 
1 4373 5071 0.00215363 -0.000111399 3.44496e-06 0.000111346 -0 4.04252e-08 
1 4373 5998 0.00153937 -1.91551e-05 1.38023e-05 -1.32822e-05 -0 1.33316e-09 
2 5177 5216 0.00186598 -6.57257e-05 -6.39054e-05 1.53608e-05 -0 1.50969e-08 
1 5177 5764 0.001836 -6.12787e-05 -1.41615e-05 -5.96198e-05 -0 1.31935e-08 
2 5194 5764 0.00144485 -6.15037e-06 5.93731e-06 1.60479e-06 -0 1.37909e-10 
2 5493 5841 0.00128154 1.62697e-05 -1.59366e-05 -3.27542e-06 0 9.62782e-10 
1 5538 5841 0.00234278 -0.000145605 0.000126687 7.17712e-05 -0 6.46668e-08 
2 2277 5177 0.00125613 1.9776e-05 -1.26279e-05 1.52193e-05 0 1.42063e-09 
2 2277 5071 0.00160153 -2.77746e-05 2.75243e-05 3.71997e-06 -0 2.7913e-09 
2 2277 3211 0.00115765 3.34801e-05 -1.77111e-05 -2.84119e-05 0 4.04152e-09 
1 2277 2831 0.00184527 -6.26493e-05 -1.48061e-05 -6.08746e-05 -0 1.37681e-08 
1 2277 5216 0.00114284 3.55597e-05 3.14948e-05 1.65097e-05 0 4.55257e-09 
2 525 2098 0.00133066 9.51161e-06 4.57403e-06 8.33961e-06 0 3.29656e-10 
2 525 5493 0.00122084 2.46642e-05 1.56227e-05 -1.90854e-05 0 2.2048e-09 
2 525 1732 0.00203138 -9.12286e-05 -1.44879e-05 9.00708e-05 -0 2.80528e-08 