Non-intersecting ant raft

16639 atoms
1 atom types
2 bond types
-0.21175 0.21175 xlo xhi
-0.04125 0.04125 ylo yhi
-0.020625 0.020625 zlo zhi

Atoms

1 1 1 0.001 304000 0.0110951 -0.0310268 0
2 2 1 0.001 304000 0.155764 0.024966 0
3 3 1 0.001 304000 0.147206 -0.00224939 0
4 4 1 0.001 304000 0.0233623 0.0244076 0
5 5 1 0.001 304000 0.111397 -0.0190517 0
6 6 1 0.001 304000 -0.155645 0.0257809 0
7 7 1 0.001 304000 -0.15812 -0.0389458 0
8 8 1 0.001 304000 -0.191579 -0.0315883 0
9 9 1 0.001 304000 0.107651 0.0179637 0
10 10 1 0.001 304000 0.0217683 -0.0242685 0
11 11 1 0.001 304000 -0.155707 0.0141547 0
12 12 1 0.001 304000 0.0867864 -0.0272683 0
13 13 1 0.001 304000 -0.136551 0.0235189 0
14 14 1 0.001 304000 0.0038786 -0.0074696 0
15 15 1 0.001 304000 0.152198 0.0121972 0
16 16 1 0.001 304000 -0.13408 -0.00737331 0
17 17 1 0.001 304000 0.0107107 0.0345009 0
18 18 1 0.001 304000 -0.177293 -0.00941562 0
19 19 1 0.001 304000 0.125725 -0.0193141 0
20 20 1 0.001 304000 0.0566626 0.0354422 0
21 21 1 0.001 304000 0.0156105 -0.0122867 0
22 22 1 0.001 304000 -0.100031 -0.00702104 0
23 23 1 0.001 304000 -0.033141 -0.0313698 0
24 24 1 0.001 304000 -0.187661 -0.035335 0
25 25 1 0.001 304000 -0.0272525 0.00989201 0
26 26 1 0.001 304000 -0.097831 0.00756274 0
27 27 1 0.001 304000 -0.0113451 -0.0133796 0
28 28 1 0.001 304000 -0.150188 -0.0195556 0
29 29 1 0.001 304000 -0.179131 0.0378851 0
30 30 1 0.001 304000 -0.0201937 -0.030756 0
31 31 1 0.001 304000 0.0536259 -0.00475251 0
32 32 1 0.001 304000 -0.0504545 -0.0011546 0
33 33 1 0.001 304000 0.0283374 0.0314979 0
34 34 1 0.001 304000 0.0517878 -0.0383175 0
35 35 1 0.001 304000 0.10595 -0.00336485 0
36 36 1 0.001 304000 0.113377 0.0221392 0
37 37 1 0.001 304000 0.118523 -0.0371499 0
38 38 1 0.001 304000 -0.0905702 -0.00535311 0
39 39 1 0.001 304000 0.0562108 0.0185256 0
40 40 1 0.001 304000 0.00125727 0.0204963 0
41 41 1 0.001 304000 0.148576 -0.0333052 0
42 42 1 0.001 304000 -0.083744 0.0284134 0
43 43 1 0.001 304000 0.0249731 -0.0122106 0
44 44 1 0.001 304000 -0.142376 0.00624915 0
45 45 1 0.001 304000 -0.177186 -0.0183653 0
46 46 1 0.001 304000 0.0891565 0.0166704 0
47 47 1 0.001 304000 0.190962 -0.0375332 0
48 48 1 0.001 304000 0.0314906 -0.0203617 0
49 49 1 0.001 304000 0.185519 0.000200625 0
50 50 1 0.001 304000 -0.037685 -0.0223681 0
51 51 1 0.001 304000 0.0963277 -0.0265782 0
52 52 1 0.001 304000 0.149042 -0.0297555 0
53 53 1 0.001 304000 -0.147994 -0.0111939 0
54 54 1 0.001 304000 -0.00796036 0.00379854 0
55 55 1 0.001 304000 0.19589 -0.0133 0
56 56 1 0.001 304000 0.131854 0.0304397 0
57 57 1 0.001 304000 0.193949 -0.0245403 0
58 58 1 0.001 304000 0.010135 -0.0136885 0
59 59 1 0.001 304000 0.033559 -0.0229055 0
60 60 1 0.001 304000 -0.0365539 -0.0349961 0
61 61 1 0.001 304000 -0.171163 0.0024511 0
62 62 1 0.001 304000 0.12359 -0.0165566 0
63 63 1 0.001 304000 -0.127355 -0.00408292 0
64 64 1 0.001 304000 0.0618202 0.0116466 0
65 65 1 0.001 304000 0.0865911 -0.0227106 0
66 66 1 0.001 304000 -0.109609 0.00199731 0
67 67 1 0.001 304000 -0.0127205 0.032597 0
68 68 1 0.001 304000 0.0534523 0.0222246 0
69 69 1 0.001 304000 0.0643134 0.0332186 0
70 70 1 0.001 304000 0.0616852 0.0383488 0
71 71 1 0.001 304000 -0.190804 -0.0278599 0
72 72 1 0.001 304000 -0.0319663 0.0123869 0
73 73 1 0.001 304000 -0.0850096 -0.0136688 0
74 74 1 0.001 304000 0.118714 0.0357561 0
75 75 1 0.001 304000 -0.194548 0.00238601 0
76 76 1 0.001 304000 0.196958 -0.00776472 0
77 77 1 0.001 304000 0.170398 0.0114829 0
78 78 1 0.001 304000 0.00529992 -0.00559084 0
79 79 1 0.001 304000 0.011267 -0.0132003 0
80 80 1 0.001 304000 -0.183588 -0.0362809 0
81 81 1 0.001 304000 0.0750816 0.0287486 0
82 82 1 0.001 304000 -0.179078 0.0121799 0
83 83 1 0.001 304000 -0.0586854 -0.0202683 0
84 84 1 0.001 304000 -0.0707272 0.0258287 0
85 85 1 0.001 304000 0.11324 0.0156348 0
86 86 1 0.001 304000 0.0316156 -0.0288512 0
87 87 1 0.001 304000 0.100687 0.0379707 0
88 88 1 0.001 304000 0.169946 -0.024095 0
89 89 1 0.001 304000 0.123158 0.00763034 0
90 90 1 0.001 304000 0.130013 -0.0292354 0
91 91 1 0.001 304000 -0.0471547 -0.0118319 0
92 92 1 0.001 304000 0.107308 0.00862163 0
93 93 1 0.001 304000 0.0700013 0.0235629 0
94 94 1 0.001 304000 -0.118868 -0.0134112 0
95 95 1 0.001 304000 -0.197517 -0.0240587 0
96 96 1 0.001 304000 -0.156621 -0.0093521 0
97 97 1 0.001 304000 -0.0980814 0.000228848 0
98 98 1 0.001 304000 0.00554163 0.0391339 0
99 99 1 0.001 304000 -0.202797 0.0356914 0
100 100 1 0.001 304000 0.178013 -0.0308605 0
101 101 1 0.001 304000 0.0954742 0.0062865 0
102 102 1 0.001 304000 0.124451 0.00727838 0
103 103 1 0.001 304000 0.130297 -0.00685634 0
104 104 1 0.001 304000 0.00405129 -0.0215346 0
105 105 1 0.001 304000 -0.0157926 0.0410321 0
106 106 1 0.001 304000 -0.169889 0.0321506 0
107 107 1 0.001 304000 -0.0683425 -0.0391573 0
108 108 1 0.001 304000 0.184467 0.0252716 0
109 109 1 0.001 304000 -0.0778376 0.0217937 0
110 110 1 0.001 304000 -0.0830352 0.00247335 0
111 111 1 0.001 304000 -0.0931173 -0.030113 0
112 112 1 0.001 304000 0.186005 0.0133949 0
113 113 1 0.001 304000 0.107638 0.00678389 0
114 114 1 0.001 304000 -0.0387915 -0.031096 0
115 115 1 0.001 304000 0.171693 -0.0263351 0
116 116 1 0.001 304000 0.0894523 -0.0244761 0
117 117 1 0.001 304000 -0.0955018 -0.0355779 0
118 118 1 0.001 304000 0.185872 -0.0380148 0
119 119 1 0.001 304000 0.115259 0.0150814 0
120 120 1 0.001 304000 -0.0483233 0.0124903 0
121 121 1 0.001 304000 0.142953 0.0218029 0
122 122 1 0.001 304000 0.148393 -0.0408489 0
123 123 1 0.001 304000 0.0426709 -0.0263605 0
124 124 1 0.001 304000 0.0880036 -0.0262289 0
125 125 1 0.001 304000 0.154659 -0.0157689 0
126 126 1 0.001 304000 0.107383 -0.00208894 0
127 127 1 0.001 304000 -0.183583 -0.0253189 0
128 128 1 0.001 304000 -0.187666 -0.0285013 0
129 129 1 0.001 304000 0.173865 0.0294278 0
130 130 1 0.001 304000 0.143023 -0.00809066 0
131 131 1 0.001 304000 -0.143913 -0.0394408 0
132 132 1 0.001 304000 -0.019175 0.0389759 0
133 133 1 0.001 304000 0.200871 0.0311565 0
134 134 1 0.001 304000 -0.0886718 0.0362499 0
135 135 1 0.001 304000 0.180029 0.0200731 0
136 136 1 0.001 304000 -0.203793 -0.0272834 0
137 137 1 0.001 304000 -0.144762 0.0316974 0
138 138 1 0.001 304000 0.108797 0.00488365 0
139 139 1 0.001 304000 -0.0102041 -0.00799064 0
140 140 1 0.001 304000 -0.135025 -0.0392332 0
141 141 1 0.001 304000 -0.187051 -0.0131714 0
142 142 1 0.001 304000 -0.0105441 0.0394421 0
143 143 1 0.001 304000 -0.0313724 -0.00838096 0
144 144 1 0.001 304000 -0.176592 0.018582 0
145 145 1 0.001 304000 -0.192062 -0.0233888 0
146 146 1 0.001 304000 0.111594 0.0195207 0
147 147 1 0.001 304000 -0.169263 0.0099399 0
148 148 1 0.001 304000 -0.128675 -0.0401039 0
149 149 1 0.001 304000 0.0722427 -0.00089406 0
150 150 1 0.001 304000 -0.138499 0.00893415 0
151 151 1 0.001 304000 0.0404017 0.0350742 0
152 152 1 0.001 304000 0.0454674 0.0315138 0
153 153 1 0.001 304000 0.182604 0.0191968 0
154 154 1 0.001 304000 0.0402996 -0.0404505 0
155 155 1 0.001 304000 -0.133051 0.0114353 0
156 156 1 0.001 304000 0.033792 0.039941 0
157 157 1 0.001 304000 0.0827479 0.0322958 0
158 158 1 0.001 304000 -0.0122631 -0.0300455 0
159 159 1 0.001 304000 0.192699 -0.0065149 0
160 160 1 0.001 304000 -0.114129 0.0192301 0
161 161 1 0.001 304000 -0.04417 0.000949503 0
162 162 1 0.001 304000 0.133841 -0.0399298 0
163 163 1 0.001 304000 0.150915 -0.0303816 0
164 164 1 0.001 304000 0.120718 0.028549 0
165 165 1 0.001 304000 0.0334882 0.00465955 0
166 166 1 0.001 304000 -0.0464997 -0.00211892 0
167 167 1 0.001 304000 0.00839741 0.0040087 0
168 168 1 0.001 304000 -0.185985 -0.0208956 0
169 169 1 0.001 304000 0.140465 -0.0148812 0
170 170 1 0.001 304000 -0.127016 -0.0172121 0
171 171 1 0.001 304000 0.00287799 0.0158885 0
172 172 1 0.001 304000 -0.164414 0.0194638 0
173 173 1 0.001 304000 0.00854287 -0.0250978 0
174 174 1 0.001 304000 -0.0650196 0.01526 0
175 175 1 0.001 304000 -0.153488 0.017167 0
176 176 1 0.001 304000 -0.105146 -0.0287407 0
177 177 1 0.001 304000 -0.0398084 0.00502551 0
178 178 1 0.001 304000 -0.0512698 -0.0128513 0
179 179 1 0.001 304000 0.124348 -0.0174127 0
180 180 1 0.001 304000 -0.0170627 0.0330908 0
181 181 1 0.001 304000 -0.188139 0.00103408 0
182 182 1 0.001 304000 0.173875 -0.0178413 0
183 183 1 0.001 304000 -0.126778 0.0315871 0
184 184 1 0.001 304000 0.148722 0.0244034 0
185 185 1 0.001 304000 -0.0685679 -0.00879154 0
186 186 1 0.001 304000 0.0299993 0.00592785 0
187 187 1 0.001 304000 0.182715 0.0335391 0
188 188 1 0.001 304000 0.0467053 -0.00483652 0
189 189 1 0.001 304000 -0.059924 0.00995221 0
190 190 1 0.001 304000 -0.179573 -0.00357839 0
191 191 1 0.001 304000 -0.15505 -0.0206462 0
192 192 1 0.001 304000 0.0303712 0.0280143 0
193 193 1 0.001 304000 0.0924477 0.00784274 0
194 194 1 0.001 304000 0.132069 -0.0310814 0
195 195 1 0.001 304000 -0.129811 0.0276944 0
196 196 1 0.001 304000 -0.0980131 0.0377865 0
197 197 1 0.001 304000 -0.0174772 -0.0166774 0
198 198 1 0.001 304000 -0.186747 -0.0265658 0
199 199 1 0.001 304000 0.086862 0.0346158 0
200 200 1 0.001 304000 0.0160548 -0.0275798 0
201 201 1 0.001 304000 -0.0413292 -0.0320807 0
202 202 1 0.001 304000 -0.0862691 -0.0388237 0
203 203 1 0.001 304000 0.139643 0.0233196 0
204 204 1 0.001 304000 -0.0857036 0.0385391 0
205 205 1 0.001 304000 -0.148536 -0.00497711 0
206 206 1 0.001 304000 0.094195 0.0306075 0
207 207 1 0.001 304000 0.00678479 0.0351682 0
208 208 1 0.001 304000 0.196832 -0.0207692 0
209 209 1 0.001 304000 -0.0191401 -0.00564883 0
210 210 1 0.001 304000 -0.184314 -0.0170727 0
211 211 1 0.001 304000 0.0590617 -0.00368138 0
212 212 1 0.001 304000 0.057383 0.0254912 0
213 213 1 0.001 304000 -0.168047 0.0176436 0
214 214 1 0.001 304000 0.0588091 -0.0012939 0
215 215 1 0.001 304000 -0.170646 0.0330792 0
216 216 1 0.001 304000 -0.159094 -0.0179449 0
217 217 1 0.001 304000 0.0100704 0.0158271 0
218 218 1 0.001 304000 -0.151978 -0.0310837 0
219 219 1 0.001 304000 -0.0887966 0.0223658 0
220 220 1 0.001 304000 -0.106657 -0.0160725 0
221 221 1 0.001 304000 -0.138941 -0.0313457 0
222 222 1 0.001 304000 -0.16105 0.0292987 0
223 223 1 0.001 304000 -0.0217187 0.0221007 0
224 224 1 0.001 304000 -0.00103886 0.027854 0
225 225 1 0.001 304000 -0.133767 0.0356028 0
226 226 1 0.001 304000 0.0770067 -0.0289074 0
227 227 1 0.001 304000 -0.118796 -0.0226651 0
228 228 1 0.001 304000 -0.182603 0.0358989 0
229 229 1 0.001 304000 -0.0447939 0.0367318 0
230 230 1 0.001 304000 0.119099 -0.010831 0
231 231 1 0.001 304000 -0.00436582 -0.0355324 0
232 232 1 0.001 304000 0.17887 0.0250089 0
233 233 1 0.001 304000 0.0133942 -0.038058 0
234 234 1 0.001 304000 -0.185523 -0.0231576 0
235 235 1 0.001 304000 -0.0891693 -0.00171939 0
236 236 1 0.001 304000 -0.0401036 0.027934 0
237 237 1 0.001 304000 0.149047 0.0152353 0
238 238 1 0.001 304000 0.0976288 -0.00951647 0
239 239 1 0.001 304000 -0.106837 0.0142543 0
240 240 1 0.001 304000 -0.172741 -0.0250385 0
241 241 1 0.001 304000 0.178397 -0.00544426 0
242 242 1 0.001 304000 -0.196425 -0.0120827 0
243 243 1 0.001 304000 0.151044 -0.0260875 0
244 244 1 0.001 304000 0.128883 -0.0359592 0
245 245 1 0.001 304000 0.0215355 -0.0383524 0
246 246 1 0.001 304000 0.0214827 0.0297729 0
247 247 1 0.001 304000 0.0716006 -0.021901 0
248 248 1 0.001 304000 -0.134516 0.0220628 0
249 249 1 0.001 304000 -0.192527 -0.00907243 0
250 250 1 0.001 304000 -0.137636 0.0156857 0
251 251 1 0.001 304000 0.00967361 -0.0249679 0
252 252 1 0.001 304000 -0.0799004 -0.0124544 0
253 253 1 0.001 304000 -0.13859 0.0149423 0
254 254 1 0.001 304000 -0.0127044 0.0410471 0
255 255 1 0.001 304000 0.125535 0.0343692 0
256 256 1 0.001 304000 -0.000574223 0.00817315 0
257 257 1 0.001 304000 0.060404 0.0361085 0
258 258 1 0.001 304000 -0.172125 -0.020232 0
259 259 1 0.001 304000 0.0562788 -0.0221247 0
260 260 1 0.001 304000 -0.074671 -0.0350309 0
261 261 1 0.001 304000 -0.178956 0.0266281 0
262 262 1 0.001 304000 -0.137124 0.000985631 0
263 263 1 0.001 304000 -0.106475 -0.032127 0
264 264 1 0.001 304000 -0.0330528 0.0225317 0
265 265 1 0.001 304000 0.0334788 0.0206608 0
266 266 1 0.001 304000 0.189274 -0.0149527 0
267 267 1 0.001 304000 -0.010205 -0.0153719 0
268 268 1 0.001 304000 -0.171932 0.0349755 0
269 269 1 0.001 304000 -0.173548 0.0020338 0
270 270 1 0.001 304000 -0.0339898 0.0412333 0
271 271 1 0.001 304000 -0.191116 0.0333225 0
272 272 1 0.001 304000 0.175629 0.0394878 0
273 273 1 0.001 304000 0.186518 -0.0260465 0
274 274 1 0.001 304000 -0.0307921 -0.00134497 0
275 275 1 0.001 304000 0.164056 0.00241405 0
276 276 1 0.001 304000 -0.0165453 0.029412 0
277 277 1 0.001 304000 0.111048 -0.0283312 0
278 278 1 0.001 304000 0.159889 -0.0208642 0
279 279 1 0.001 304000 -0.075497 -0.0314151 0
280 280 1 0.001 304000 -0.079622 -0.0319786 0
281 281 1 0.001 304000 0.0848383 -0.0262552 0
282 282 1 0.001 304000 0.198035 0.0147007 0
283 283 1 0.001 304000 -0.138059 -0.0301575 0
284 284 1 0.001 304000 -0.10942 -0.0366591 0
285 285 1 0.001 304000 0.00642424 -0.0198888 0
286 286 1 0.001 304000 -0.0224118 -0.0039149 0
287 287 1 0.001 304000 -0.0890736 -0.00550311 0
288 288 1 0.001 304000 -0.189252 0.0130698 0
289 289 1 0.001 304000 -0.162668 0.0125121 0
290 290 1 0.001 304000 0.12687 -0.00274436 0
291 291 1 0.001 304000 -0.0234512 0.037743 0
292 292 1 0.001 304000 0.202928 0.029263 0
293 293 1 0.001 304000 0.0484161 -0.0401107 0
294 294 1 0.001 304000 -0.169864 -0.00957841 0
295 295 1 0.001 304000 -0.0122928 0.0266815 0
296 296 1 0.001 304000 -0.0609363 0.038582 0
297 297 1 0.001 304000 -0.0307694 -0.0140038 0
298 298 1 0.001 304000 0.0516784 0.0333056 0
299 299 1 0.001 304000 0.0378004 0.03463 0
300 300 1 0.001 304000 0.102739 -0.00458205 0
301 301 1 0.001 304000 -0.165474 -0.0139161 0
302 302 1 0.001 304000 -0.176199 -0.0242626 0
303 303 1 0.001 304000 -0.190675 -0.0130867 0
304 304 1 0.001 304000 -0.117701 0.0398971 0
305 305 1 0.001 304000 -0.166387 0.00970705 0
306 306 1 0.001 304000 -0.066366 -0.00667872 0
307 307 1 0.001 304000 0.169406 -0.0198404 0
308 308 1 0.001 304000 -0.00196092 0.0301471 0
309 309 1 0.001 304000 0.189739 -0.0117219 0
310 310 1 0.001 304000 -0.109729 0.0316061 0
311 311 1 0.001 304000 0.118231 0.0380971 0
312 312 1 0.001 304000 0.119029 0.0161185 0
313 313 1 0.001 304000 0.09508 -0.0132582 0
314 314 1 0.001 304000 -0.169685 -0.0359014 0
315 315 1 0.001 304000 0.0944284 0.0124222 0
316 316 1 0.001 304000 -0.129294 -0.0213524 0
317 317 1 0.001 304000 -0.106427 0.0317911 0
318 318 1 0.001 304000 -0.183559 -0.0224642 0
319 319 1 0.001 304000 -0.0709105 0.0122472 0
320 320 1 0.001 304000 -0.191677 0.0122123 0
321 321 1 0.001 304000 0.0436058 -0.0147896 0
322 322 1 0.001 304000 -0.198349 0.0253919 0
323 323 1 0.001 304000 -0.0545812 -0.036252 0
324 324 1 0.001 304000 -0.0199544 0.0099401 0
325 325 1 0.001 304000 -0.149496 0.00744038 0
326 326 1 0.001 304000 0.187872 -0.0314781 0
327 327 1 0.001 304000 -0.197447 0.0343203 0
328 328 1 0.001 304000 0.0950518 -0.0337326 0
329 329 1 0.001 304000 0.0701772 -0.0308387 0
330 330 1 0.001 304000 -0.016489 0.0110404 0
331 331 1 0.001 304000 0.155993 -0.00224812 0
332 332 1 0.001 304000 -0.153292 0.0252174 0
333 333 1 0.001 304000 0.169811 -0.0290124 0
334 334 1 0.001 304000 -0.143107 -0.0350755 0
335 335 1 0.001 304000 0.0670402 0.0273102 0
336 336 1 0.001 304000 0.0788976 -0.0261952 0
337 337 1 0.001 304000 0.187667 0.0030126 0
338 338 1 0.001 304000 -0.170381 0.0228803 0
339 339 1 0.001 304000 -0.195295 0.0323693 0
340 340 1 0.001 304000 0.155225 -0.0375354 0
341 341 1 0.001 304000 -0.0325657 0.00272492 0
342 342 1 0.001 304000 -0.0940281 -0.00656945 0
343 343 1 0.001 304000 -0.137053 0.0303154 0
344 344 1 0.001 304000 -0.0579095 -0.00919156 0
345 345 1 0.001 304000 0.110157 0.00358127 0
346 346 1 0.001 304000 0.130215 0.00382875 0
347 347 1 0.001 304000 -0.13967 -0.0149212 0
348 348 1 0.001 304000 -0.198771 0.0389064 0
349 349 1 0.001 304000 -0.130979 -0.00687619 0
350 350 1 0.001 304000 -0.0865674 0.033139 0
351 351 1 0.001 304000 0.178792 -0.036181 0
352 352 1 0.001 304000 -0.148459 0.00560973 0
353 353 1 0.001 304000 0.0161134 0.0325475 0
354 354 1 0.001 304000 0.0421626 0.00686183 0
355 355 1 0.001 304000 -0.142451 -0.0297051 0
356 356 1 0.001 304000 0.0513963 0.0293465 0
357 357 1 0.001 304000 -0.0155405 -0.0381002 0
358 358 1 0.001 304000 0.152053 0.0175362 0
359 359 1 0.001 304000 -0.00883508 -0.0139728 0
360 360 1 0.001 304000 0.0572804 -0.0325774 0
361 361 1 0.001 304000 0.199742 -0.024073 0
362 362 1 0.001 304000 -0.126987 -0.025544 0
363 363 1 0.001 304000 -0.0723597 0.0017305 0
364 364 1 0.001 304000 -0.00969712 0.0283071 0
365 365 1 0.001 304000 0.109716 -0.00752992 0
366 366 1 0.001 304000 0.0749866 0.0200807 0
367 367 1 0.001 304000 0.166274 -0.0228228 0
368 368 1 0.001 304000 0.0258748 0.0365335 0
369 369 1 0.001 304000 0.135402 0.036511 0
370 370 1 0.001 304000 -0.0316343 -0.0108963 0
371 371 1 0.001 304000 0.202076 -0.0376087 0
372 372 1 0.001 304000 0.0530544 -0.00843782 0
373 373 1 0.001 304000 -0.0769178 0.0207607 0
374 374 1 0.001 304000 -0.182007 -9.93592e-05 0
375 375 1 0.001 304000 0.13115 -0.0205955 0
376 376 1 0.001 304000 -0.12165 -0.027693 0
377 377 1 0.001 304000 0.03356 0.000542557 0
378 378 1 0.001 304000 0.108552 -0.00853402 0
379 379 1 0.001 304000 0.0125859 0.0387209 0
380 380 1 0.001 304000 0.116786 -0.0405182 0
381 381 1 0.001 304000 -0.11226 -0.0137526 0
382 382 1 0.001 304000 0.0184226 -0.0355059 0
383 383 1 0.001 304000 0.0828357 -0.0152203 0
384 384 1 0.001 304000 -0.189695 -0.025391 0
385 385 1 0.001 304000 0.00325634 0.0126996 0
386 386 1 0.001 304000 -0.16688 0.0169885 0
387 387 1 0.001 304000 0.135313 -0.00402183 0
388 388 1 0.001 304000 -0.0572187 0.0331096 0
389 389 1 0.001 304000 0.121707 -0.0396845 0
390 390 1 0.001 304000 -0.0658642 -0.00777427 0
391 391 1 0.001 304000 -0.140564 0.031286 0
392 392 1 0.001 304000 0.205556 0.0190654 0
393 393 1 0.001 304000 0.0679045 -0.0342858 0
394 394 1 0.001 304000 0.00250667 0.0118012 0
395 395 1 0.001 304000 0.189046 0.0150995 0
396 396 1 0.001 304000 0.0696076 0.0296877 0
397 397 1 0.001 304000 0.129141 -0.00547126 0
398 398 1 0.001 304000 -0.0628983 -0.0384406 0
399 399 1 0.001 304000 -0.156457 0.0304253 0
400 400 1 0.001 304000 -0.004779 0.00677633 0
401 401 1 0.001 304000 -0.0799872 0.0146323 0
402 402 1 0.001 304000 -0.127384 0.0231696 0
403 403 1 0.001 304000 -0.143387 0.0316966 0
404 404 1 0.001 304000 -0.188752 0.00235359 0
405 405 1 0.001 304000 -0.175034 0.0125035 0
406 406 1 0.001 304000 0.0748729 -0.038976 0
407 407 1 0.001 304000 -0.0923236 0.0147012 0
408 408 1 0.001 304000 -0.0637973 0.0357999 0
409 409 1 0.001 304000 -0.134414 0.0194623 0
410 410 1 0.001 304000 0.0300774 -0.0110313 0
411 411 1 0.001 304000 0.0919055 -0.0177123 0
412 412 1 0.001 304000 0.0307509 0.0395857 0
413 413 1 0.001 304000 -0.0522823 -0.0170325 0
414 414 1 0.001 304000 0.165661 0.00014436 0
415 415 1 0.001 304000 0.0500464 0.0334954 0
416 416 1 0.001 304000 -0.1134 -0.0340204 0
417 417 1 0.001 304000 -0.0903441 0.0330556 0
418 418 1 0.001 304000 0.0463688 0.0378134 0
419 419 1 0.001 304000 -0.0375155 0.00619617 0
420 420 1 0.001 304000 -0.124006 0.00817482 0
421 421 1 0.001 304000 0.094496 -0.0073806 0
422 422 1 0.001 304000 0.131526 -0.00218651 0
423 423 1 0.001 304000 -0.118938 -0.0199406 0
424 424 1 0.001 304000 -0.00572074 -0.0359471 0
425 425 1 0.001 304000 -0.150793 0.0234925 0
426 426 1 0.001 304000 -0.119256 -0.0020035 0
427 427 1 0.001 304000 -0.18134 -0.0248104 0
428 428 1 0.001 304000 -0.0770482 0.0234897 0
429 429 1 0.001 304000 0.125876 0.0296799 0
430 430 1 0.001 304000 -0.0476594 -0.0304289 0
431 431 1 0.001 304000 0.00635383 0.0289223 0
432 432 1 0.001 304000 0.059813 0.00626014 0
433 433 1 0.001 304000 0.0576497 -0.0285211 0
434 434 1 0.001 304000 -0.00604368 -0.0129658 0
435 435 1 0.001 304000 0.12042 0.038959 0
436 436 1 0.001 304000 0.161288 0.0328781 0
437 437 1 0.001 304000 0.0952742 0.0264941 0
438 438 1 0.001 304000 -0.00847405 0.0169542 0
439 439 1 0.001 304000 0.147763 0.0182855 0
440 440 1 0.001 304000 0.0500494 0.0246747 0
441 441 1 0.001 304000 0.200433 -0.00303078 0
442 442 1 0.001 304000 0.0285691 -0.0176317 0
443 443 1 0.001 304000 0.171092 0.0126915 0
444 444 1 0.001 304000 0.187237 0.0274326 0
445 445 1 0.001 304000 0.00482434 0.0406814 0
446 446 1 0.001 304000 0.0177765 0.0330376 0
447 447 1 0.001 304000 0.0122691 0.0412047 0
448 448 1 0.001 304000 -0.17449 -0.0233169 0
449 449 1 0.001 304000 -0.0206247 0.0268781 0
450 450 1 0.001 304000 -0.055612 0.0217788 0
451 451 1 0.001 304000 -0.117135 -0.0276595 0
452 452 1 0.001 304000 0.136357 -0.0252672 0
453 453 1 0.001 304000 0.20322 0.0190589 0
454 454 1 0.001 304000 -0.0511349 0.0215645 0
455 455 1 0.001 304000 0.191783 -0.0143416 0
456 456 1 0.001 304000 0.0884177 -0.0184579 0
457 457 1 0.001 304000 0.0442634 0.00701813 0
458 458 1 0.001 304000 -0.147133 -0.00913349 0
459 459 1 0.001 304000 -0.138832 0.0166164 0
460 460 1 0.001 304000 -0.0379138 0.0135556 0
461 461 1 0.001 304000 0.0160949 0.0149899 0
462 462 1 0.001 304000 -0.0908847 -0.019708 0
463 463 1 0.001 304000 0.0709117 0.0213095 0
464 464 1 0.001 304000 0.00392375 0.0110193 0
465 465 1 0.001 304000 -0.203558 0.0240225 0
466 466 1 0.001 304000 -0.0157928 -0.011447 0
467 467 1 0.001 304000 0.165633 -0.0245074 0
468 468 1 0.001 304000 -0.0914264 -0.00175973 0
469 469 1 0.001 304000 0.204088 0.0289974 0
470 470 1 0.001 304000 -0.0668243 -0.0087398 0
471 471 1 0.001 304000 -0.201873 -0.0326156 0
472 472 1 0.001 304000 -0.0671201 -0.0214357 0
473 473 1 0.001 304000 -0.138346 -0.00433826 0
474 474 1 0.001 304000 -0.16328 -0.0372083 0
475 475 1 0.001 304000 -0.104438 0.00758409 0
476 476 1 0.001 304000 -0.0132381 0.0198569 0
477 477 1 0.001 304000 -0.0712138 0.0142499 0
478 478 1 0.001 304000 0.189287 0.0389615 0
479 479 1 0.001 304000 -0.13199 -0.017111 0
480 480 1 0.001 304000 -0.154461 -0.0128121 0
481 481 1 0.001 304000 0.164173 0.0289457 0
482 482 1 0.001 304000 0.1564 -0.0183113 0
483 483 1 0.001 304000 0.144353 0.0398659 0
484 484 1 0.001 304000 -0.177027 0.00104793 0
485 485 1 0.001 304000 -0.0293413 0.0172885 0
486 486 1 0.001 304000 0.204994 0.0172577 0
487 487 1 0.001 304000 0.161886 0.0391789 0
488 488 1 0.001 304000 -0.193903 0.00858827 0
489 489 1 0.001 304000 0.0578356 -0.0148497 0
490 490 1 0.001 304000 0.008107 -0.020996 0
491 491 1 0.001 304000 0.169952 0.0321646 0
492 492 1 0.001 304000 0.0806757 -0.017573 0
493 493 1 0.001 304000 -0.00211297 -0.016186 0
494 494 1 0.001 304000 0.112896 0.0143517 0
495 495 1 0.001 304000 0.0179853 0.0381729 0
496 496 1 0.001 304000 -0.157971 -0.000685759 0
497 497 1 0.001 304000 -0.191709 0.0192582 0
498 498 1 0.001 304000 0.085364 0.0178336 0
499 499 1 0.001 304000 -0.0682005 -0.00239738 0
500 500 1 0.001 304000 0.0418455 -0.000566113 0
501 501 1 0.001 304000 0.170198 -0.0335291 0
502 502 1 0.001 304000 -0.157532 0.0121661 0
503 503 1 0.001 304000 -0.0729682 -0.0171687 0
504 504 1 0.001 304000 0.192954 -0.0276861 0
505 505 1 0.001 304000 -0.196647 -0.0328355 0
506 506 1 0.001 304000 -0.166602 -0.00536612 0
507 507 1 0.001 304000 -0.166973 0.0290985 0
508 508 1 0.001 304000 -0.100908 -0.0273758 0
509 509 1 0.001 304000 0.0748525 -0.0310213 0
510 510 1 0.001 304000 0.0530236 -0.0283658 0
511 511 1 0.001 304000 0.0693858 -0.0248221 0
512 512 1 0.001 304000 0.113055 -0.036699 0
513 513 1 0.001 304000 0.201392 -0.0161515 0
514 514 1 0.001 304000 -0.103148 -0.00899018 0
515 515 1 0.001 304000 -0.105463 0.0286608 0
516 516 1 0.001 304000 -0.17241 0.0376254 0
517 517 1 0.001 304000 -0.162324 0.035918 0
518 518 1 0.001 304000 0.140841 0.0150599 0
519 519 1 0.001 304000 -0.0190269 -0.00201133 0
520 520 1 0.001 304000 -0.114582 0.0353935 0
521 521 1 0.001 304000 -0.0785672 0.0309718 0
522 522 1 0.001 304000 0.0878226 0.0179019 0
523 523 1 0.001 304000 -0.00214834 0.0266288 0
524 524 1 0.001 304000 -0.205428 0.0130187 0
525 525 1 0.001 304000 0.0241624 0.0385469 0
526 526 1 0.001 304000 -0.022095 -0.00532357 0
527 527 1 0.001 304000 0.0388846 -0.0140629 0
528 528 1 0.001 304000 -0.00204514 -0.00186032 0
529 529 1 0.001 304000 0.140241 0.0384345 0
530 530 1 0.001 304000 0.153795 0.0195643 0
531 531 1 0.001 304000 0.0588393 0.0147548 0
532 532 1 0.001 304000 0.200734 0.0342969 0
533 533 1 0.001 304000 -0.0340165 -0.0114653 0
534 534 1 0.001 304000 -0.113375 -0.0262117 0
535 535 1 0.001 304000 0.0235327 -0.0359016 0
536 536 1 0.001 304000 0.188797 0.00351068 0
537 537 1 0.001 304000 -0.119877 0.0373893 0
538 538 1 0.001 304000 -0.00690491 -0.0222255 0
539 539 1 0.001 304000 -0.075689 0.00921193 0
540 540 1 0.001 304000 -0.124604 -0.0211116 0
541 541 1 0.001 304000 0.136398 0.0342548 0
542 542 1 0.001 304000 -0.0733018 0.0169901 0
543 543 1 0.001 304000 0.157691 -0.0391723 0
544 544 1 0.001 304000 -0.202124 -0.0110204 0
545 545 1 0.001 304000 -0.17199 0.00930166 0
546 546 1 0.001 304000 0.00901693 0.00668472 0
547 547 1 0.001 304000 0.205493 -0.0184091 0
548 548 1 0.001 304000 0.150726 -0.00751301 0
549 549 1 0.001 304000 0.0728251 -0.0362924 0
550 550 1 0.001 304000 0.0547951 0.0193166 0
551 551 1 0.001 304000 0.0922046 0.0263289 0
552 552 1 0.001 304000 -0.0200363 0.0253193 0
553 553 1 0.001 304000 -0.0209665 0.0328256 0
554 554 1 0.001 304000 -0.119436 0.0021574 0
555 555 1 0.001 304000 0.145271 -0.0411411 0
556 556 1 0.001 304000 0.0143154 -0.0280132 0
557 557 1 0.001 304000 0.154601 -0.0297069 0
558 558 1 0.001 304000 0.0826056 -0.00825744 0
559 559 1 0.001 304000 0.149736 0.0224575 0
560 560 1 0.001 304000 -0.147308 -0.0319986 0
561 561 1 0.001 304000 -0.161511 0.0200138 0
562 562 1 0.001 304000 0.153365 -0.0371615 0
563 563 1 0.001 304000 0.0467607 0.0247682 0
564 564 1 0.001 304000 -0.0472988 0.00977092 0
565 565 1 0.001 304000 0.102417 -0.0236408 0
566 566 1 0.001 304000 0.156444 -0.0110817 0
567 567 1 0.001 304000 -0.0474257 -0.0382809 0
568 568 1 0.001 304000 0.0247776 -0.024108 0
569 569 1 0.001 304000 -0.135224 -0.0254119 0
570 570 1 0.001 304000 0.193948 0.0222034 0
571 571 1 0.001 304000 -0.034287 -0.00498337 0
572 572 1 0.001 304000 0.0375431 0.0138713 0
573 573 1 0.001 304000 -0.078404 -0.0215418 0
574 574 1 0.001 304000 -0.206094 -0.00938341 0
575 575 1 0.001 304000 -0.0640504 0.0335884 0
576 576 1 0.001 304000 -0.204809 -0.0129885 0
577 577 1 0.001 304000 0.116578 0.037406 0
578 578 1 0.001 304000 -0.0872052 0.00225982 0
579 579 1 0.001 304000 -0.0654402 -0.0112356 0
580 580 1 0.001 304000 -0.177592 -0.0162248 0
581 581 1 0.001 304000 -0.153588 -0.000686599 0
582 582 1 0.001 304000 -0.176683 -0.011383 0
583 583 1 0.001 304000 -0.150957 -0.0399495 0
584 584 1 0.001 304000 -0.0189174 0.0202164 0
585 585 1 0.001 304000 0.174838 0.0145314 0
586 586 1 0.001 304000 -0.0731735 0.0199561 0
587 587 1 0.001 304000 -0.172293 -0.0187201 0
588 588 1 0.001 304000 0.048658 -0.0242078 0
589 589 1 0.001 304000 0.092263 -0.0200731 0
590 590 1 0.001 304000 -0.0700548 -0.0295501 0
591 591 1 0.001 304000 -0.131029 0.020962 0
592 592 1 0.001 304000 0.125326 -0.0301832 0
593 593 1 0.001 304000 -0.0244306 -0.0233943 0
594 594 1 0.001 304000 -0.129012 0.0179594 0
595 595 1 0.001 304000 0.123299 0.00234873 0
596 596 1 0.001 304000 -0.143932 -0.0251973 0
597 597 1 0.001 304000 0.127584 -0.0199007 0
598 598 1 0.001 304000 0.0389123 -0.0253173 0
599 599 1 0.001 304000 -0.186805 0.0068721 0
600 600 1 0.001 304000 0.194962 0.0184827 0
601 601 1 0.001 304000 0.183601 -0.0405625 0
602 602 1 0.001 304000 0.0266959 0.0405621 0
603 603 1 0.001 304000 -0.116896 0.0355974 0
604 604 1 0.001 304000 -0.0995765 -0.0208759 0
605 605 1 0.001 304000 -0.0678204 0.0128398 0
606 606 1 0.001 304000 0.194467 -0.0318895 0
607 607 1 0.001 304000 -0.157054 -0.0131192 0
608 608 1 0.001 304000 -0.197919 -0.0216572 0
609 609 1 0.001 304000 0.127644 0.00709911 0
610 610 1 0.001 304000 0.0243368 0.0408339 0
611 611 1 0.001 304000 0.0870737 0.0146269 0
612 612 1 0.001 304000 0.0850659 -0.0209188 0
613 613 1 0.001 304000 -0.0971982 0.0398123 0
614 614 1 0.001 304000 0.0654161 -0.0316114 0
615 615 1 0.001 304000 0.156045 0.00930381 0
616 616 1 0.001 304000 0.00125253 0.0371389 0
617 617 1 0.001 304000 0.192355 -0.0131597 0
618 618 1 0.001 304000 0.00431679 0.0256264 0
619 619 1 0.001 304000 0.0364987 -0.0397565 0
620 620 1 0.001 304000 0.160334 -0.0353537 0
621 621 1 0.001 304000 -0.163936 -0.0325712 0
622 622 1 0.001 304000 -0.170896 0.0156076 0
623 623 1 0.001 304000 -0.153026 -0.00854982 0
624 624 1 0.001 304000 -0.112512 -0.00673066 0
625 625 1 0.001 304000 -0.0296683 -0.00505977 0
626 626 1 0.001 304000 -0.0121377 0.0363579 0
627 627 1 0.001 304000 -0.100063 -0.0324568 0
628 628 1 0.001 304000 0.0499192 -0.00340443 0
629 629 1 0.001 304000 0.101301 0.0335592 0
630 630 1 0.001 304000 0.056779 -0.0306942 0
631 631 1 0.001 304000 0.0568238 0.0230537 0
632 632 1 0.001 304000 0.193025 -0.0315237 0
633 633 1 0.001 304000 0.0320961 -0.0127268 0
634 634 1 0.001 304000 -0.102289 -0.0188726 0
635 635 1 0.001 304000 0.0416915 -0.0378529 0
636 636 1 0.001 304000 -0.0357986 0.0188039 0
637 637 1 0.001 304000 0.164219 -0.0201045 0
638 638 1 0.001 304000 0.194823 -0.0402139 0
639 639 1 0.001 304000 0.105423 -0.0120865 0
640 640 1 0.001 304000 0.0527127 0.027053 0
641 641 1 0.001 304000 -0.166822 -0.040762 0
642 642 1 0.001 304000 0.197901 -0.0032635 0
643 643 1 0.001 304000 0.198219 0.017298 0
644 644 1 0.001 304000 0.0531735 -0.0255764 0
645 645 1 0.001 304000 -0.128593 0.0063582 0
646 646 1 0.001 304000 -0.0678883 0.001376 0
647 647 1 0.001 304000 0.206091 0.00404705 0
648 648 1 0.001 304000 0.0980896 0.0346318 0
649 649 1 0.001 304000 -0.0348913 -0.00372322 0
650 650 1 0.001 304000 -0.0781978 0.0110452 0
651 651 1 0.001 304000 -0.0358287 0.00121604 0
652 652 1 0.001 304000 0.0514748 0.00407397 0
653 653 1 0.001 304000 0.193567 -0.0352653 0
654 654 1 0.001 304000 -0.16556 0.0366849 0
655 655 1 0.001 304000 0.188066 -0.0177451 0
656 656 1 0.001 304000 -0.0269966 -0.0100858 0
657 657 1 0.001 304000 0.199213 0.0021134 0
658 658 1 0.001 304000 -0.16641 -0.00726331 0
659 659 1 0.001 304000 0.0865252 0.0114049 0
660 660 1 0.001 304000 -0.171365 -0.00303452 0