Network with Crack

16639 atoms
65817 bonds
1 atom types
2 bond types
-0.21175 0.21175 xlo xhi
-0.0412559 0.0412559 ylo yhi
-0.020625 0.020625 zlo zhi

Atoms

3122 3122 1 0.001 304000 -0.139085 -0.0399281 0
6046 6046 1 0.001 304000 -0.139124 -0.0335739 0
1810 1810 1 0.001 304000 -0.138942 -0.0352038 0
9527 9527 1 0.001 304000 -0.138898 -0.0410892 0
9593 9593 1 0.001 304000 -0.138689 -0.0387774 0
14998 14998 1 0.001 304000 -0.138766 -0.0376822 0
10113 10113 1 0.001 304000 -0.138925 -0.0365169 0
1573 1573 1 0.001 304000 -0.138185 -0.0330796 0
8716 8716 1 0.001 304000 -0.137954 -0.0397622 0
3465 3465 1 0.001 304000 -0.137733 -0.0348384 0
11073 11073 1 0.001 304000 -0.137767 -0.0371849 0
13201 13201 1 0.001 304000 -0.137778 -0.0410634 0
12629 12629 1 0.001 304000 -0.137751 -0.0359527 0
887 887 1 0.001 304000 -0.137597 -0.03852 0
15384 15384 1 0.001 304000 -0.137193 -0.0339503 0
2465 2465 1 0.001 304000 -0.136849 -0.0392849 0
5673 5673 1 0.001 304000 -0.136972 -0.0404169 0
6769 6769 1 0.001 304000 -0.136828 -0.0376839 0
6849 6849 1 0.001 304000 -0.136807 -0.036464 0
12419 12419 1 0.001 304000 -0.136653 -0.0354543 0
471 471 1 0.001 304000 -0.136194 -0.0332715 0
14472 14472 1 0.001 304000 -0.136189 -0.0344122 0
10184 10184 1 0.001 304000 -0.135748 -0.0404932 0
13663 13663 1 0.001 304000 -0.135918 -0.0388905 0
1600 1600 1 0.001 304000 -0.135757 -0.0376723 0
5599 5599 1 0.001 304000 -0.135732 -0.0360482 0
12937 12937 1 0.001 304000 -0.135351 -0.0349368 0
2106 2106 1 0.001 304000 -0.13474 -0.0400028 0
2890 2890 1 0.001 304000 -0.134907 -0.0386879 0
8389 8389 1 0.001 304000 -0.135155 -0.0336336 0
4806 4806 1 0.001 304000 -0.134747 -0.0365408 0
5868 5868 1 0.001 304000 -0.134664 -0.0376504 0
9864 9864 1 0.001 304000 -0.133973 -0.0390946 0
3891 3891 1 0.001 304000 -0.134283 -0.0355363 0
7388 7388 1 0.001 304000 -0.134088 -0.04105 0
2845 2845 1 0.001 304000 -0.134258 -0.0341869 0
13584 13584 1 0.001 304000 -0.13304 -0.0408765 0
15232 15232 1 0.001 304000 -0.133019 -0.039521 0
10251 10251 1 0.001 304000 -0.133597 -0.0373636 0
7951 7951 1 0.001 304000 -0.133047 -0.0384038 0
10303 10303 1 0.001 304000 -0.133053 -0.03571 0
10707 10707 1 0.001 304000 -0.133066 -0.034572 0
505 505 1 0.001 304000 -0.133162 -0.0334232 0
12059 12059 1 0.001 304000 -0.132638 -0.0369095 0
12564 12564 1 0.001 304000 -0.132204 -0.0401858 0
5086 5086 1 0.001 304000 -0.131967 -0.0390346 0
3157 3157 1 0.001 304000 -0.131882 -0.0346287 0
1429 1429 1 0.001 304000 -0.131974 -0.0359347 0
16595 16595 1 0.001 304000 -0.131732 -0.0411308 0
2007 2007 1 0.001 304000 -0.131794 -0.0379476 0
16068 16068 1 0.001 304000 -0.131815 -0.0335212 0
15548 15548 1 0.001 304000 -0.131378 -0.0369569 0
14444 14444 1 0.001 304000 -0.131114 -0.0403585 0
5549 5549 1 0.001 304000 -0.130861 -0.0358023 0
4891 4891 1 0.001 304000 -0.130892 -0.038572 0
7068 7068 1 0.001 304000 -0.130398 -0.0375883 0
4775 4775 1 0.001 304000 -0.130568 -0.0336196 0
10308 10308 1 0.001 304000 -0.130451 -0.0397261 0
2730 2730 1 0.001 304000 -0.129833 -0.0346906 0
4347 4347 1 0.001 304000 -0.130013 -0.0412224 0
3145 3145 1 0.001 304000 -0.129783 -0.0388814 0
8679 8679 1 0.001 304000 -0.129621 -0.0362919 0
3549 3549 1 0.001 304000 -0.129023 -0.0334954 0
7494 7494 1 0.001 304000 -0.129335 -0.0378239 0
16631 16631 1 0.001 304000 -0.129476 -0.0398847 0
8328 8328 1 0.001 304000 -0.128737 -0.0386775 0
5780 5780 1 0.001 304000 -0.128588 -0.0368075 0
13226 13226 1 0.001 304000 -0.128825 -0.0410602 0
1992 1992 1 0.001 304000 -0.127988 -0.0376293 0
2909 2909 1 0.001 304000 -0.128436 -0.0398627 0
13121 13121 1 0.001 304000 -0.128198 -0.0348471 0
10238 10238 1 0.001 304000 -0.12778 -0.0388341 0
740 740 1 0.001 304000 -0.127665 -0.0331467 0
14280 14280 1 0.001 304000 -0.127428 -0.0361275 0
15587 15587 1 0.001 304000 -0.127715 -0.0410081 0
24 24 1 0.001 304000 -0.126723 -0.0350771 0
5364 5364 1 0.001 304000 -0.127036 -0.0381335 0
6782 6782 1 0.001 304000 -0.127331 -0.0396379 0
8257 8257 1 0.001 304000 -0.127042 -0.0340494 0
2542 2542 1 0.001 304000 -0.12642 -0.0362418 0
3352 3352 1 0.001 304000 -0.126599 -0.0402948 0
6645 6645 1 0.001 304000 -0.126005 -0.038292 0
10760 10760 1 0.001 304000 -0.126186 -0.037267 0
14487 14487 1 0.001 304000 -0.126219 -0.0393802 0
1608 1608 1 0.001 304000 -0.125891 -0.0333213 0
8116 8116 1 0.001 304000 -0.125655 -0.0345056 0
9382 9382 1 0.001 304000 -0.125458 -0.0403873 0
827 827 1 0.001 304000 -0.125214 -0.0358739 0
9453 9453 1 0.001 304000 -0.125206 -0.039227 0
7921 7921 1 0.001 304000 -0.124962 -0.0379176 0
80 80 1 0.001 304000 -0.124548 -0.0367752 0
11542 11542 1 0.001 304000 -0.124614 -0.0349597 0
13328 13328 1 0.001 304000 -0.124482 -0.040942 0
16113 16113 1 0.001 304000 -0.124285 -0.0388374 0
7309 7309 1 0.001 304000 -0.124774 -0.0333426 0
6609 6609 1 0.001 304000 -0.124021 -0.0339924 0
4142 4142 1 0.001 304000 -0.12382 -0.0398179 0
16501 16501 1 0.001 304000 -0.123822 -0.037514 0
7160 7160 1 0.001 304000 -0.123559 -0.0351064 0
8528 8528 1 0.001 304000 -0.123263 -0.0385017 0
3064 3064 1 0.001 304000 -0.123313 -0.036138 0
14008 14008 1 0.001 304000 -0.123107 -0.0406544 0
9502 9502 1 0.001 304000 -0.122982 -0.034058 0
2199 2199 1 0.001 304000 -0.122756 -0.037194 0
7947 7947 1 0.001 304000 -0.122398 -0.035489 0
5115 5115 1 0.001 304000 -0.122467 -0.0392848 0
5990 5990 1 0.001 304000 -0.122212 -0.0410776 0
6806 6806 1 0.001 304000 -0.122159 -0.0382031 0
5518 5518 1 0.001 304000 -0.122079 -0.0334265 0
8833 8833 1 0.001 304000 -0.121792 -0.0363566 0
8463 8463 1 0.001 304000 -0.12178 -0.0400469 0
4684 4684 1 0.001 304000 -0.121757 -0.0346799 0
13401 13401 1 0.001 304000 -0.121486 -0.03741 0
16060 16060 1 0.001 304000 -0.121138 -0.0411134 0
3782 3782 1 0.001 304000 -0.121173 -0.0387614 0
6922 6922 1 0.001 304000 -0.121019 -0.0355252 0
12579 12579 1 0.001 304000 -0.120755 -0.0400341 0
7184 7184 1 0.001 304000 -0.120955 -0.0338837 0
15767 15767 1 0.001 304000 -0.120657 -0.0366579 0
2171 2171 1 0.001 304000 -0.120308 -0.0347366 0
10492 10492 1 0.001 304000 -0.12036 -0.0377776 0
11242 11242 1 0.001 304000 -0.120043 -0.0409748 0
12428 12428 1 0.001 304000 -0.120158 -0.0389656 0
11646 11646 1 0.001 304000 -0.119888 -0.0336981 0
12064 12064 1 0.001 304000 -0.11979 -0.0357759 0
12416 12416 1 0.001 304000 -0.119258 -0.0375234 0
12376 12376 1 0.001 304000 -0.119048 -0.0407169 0
14016 14016 1 0.001 304000 -0.118932 -0.0387487 0
14899 14899 1 0.001 304000 -0.119128 -0.0344726 0
1935 1935 1 0.001 304000 -0.118686 -0.0365768 0
9877 9877 1 0.001 304000 -0.118665 -0.0354439 0
2795 2795 1 0.001 304000 -0.118553 -0.0397613 0
15483 15483 1 0.001 304000 -0.118784 -0.0333883 0
4294 4294 1 0.001 304000 -0.118108 -0.0343161 0
11059 11059 1 0.001 304000 -0.118038 -0.0409458 0
13738 13738 1 0.001 304000 -0.117888 -0.0372103 0
9424 9424 1 0.001 304000 -0.117725 -0.0387288 0
6263 6263 1 0.001 304000 -0.117399 -0.0350158 0
11841 11841 1 0.001 304000 -0.117498 -0.0362393 0
12149 12149 1 0.001 304000 -0.117373 -0.033575 0
6999 6999 1 0.001 304000 -0.117264 -0.0398422 0
1682 1682 1 0.001 304000 -0.116413 -0.0360253 0
13490 13490 1 0.001 304000 -0.117055 -0.0378395 0
12461 12461 1 0.001 304000 -0.116921 -0.0412331 0
15115 15115 1 0.001 304000 -0.116109 -0.0393732 0
15126 15126 1 0.001 304000 -0.116361 -0.0346794 0
10127 10127 1 0.001 304000 -0.116303 -0.0335057 0
13602 13602 1 0.001 304000 -0.116062 -0.0369973 0
10103 10103 1 0.001 304000 -0.11612 -0.0381801 0
12217 12217 1 0.001 304000 -0.116252 -0.0404366 0
314 314 1 0.001 304000 -0.114869 -0.0364019 0
3516 3516 1 0.001 304000 -0.115225 -0.038681 0
6880 6880 1 0.001 304000 -0.115406 -0.0409415 0
13661 13661 1 0.001 304000 -0.115341 -0.0353371 0
8388 8388 1 0.001 304000 -0.115224 -0.0331807 0
4118 4118 1 0.001 304000 -0.114839 -0.0375066 0
1048 1048 1 0.001 304000 -0.115027 -0.0342536 0
14651 14651 1 0.001 304000 -0.114393 -0.0409924 0
10768 10768 1 0.001 304000 -0.114435 -0.0398385 0
13443 13443 1 0.001 304000 -0.11412 -0.0386438 0
13881 13881 1 0.001 304000 -0.114127 -0.0352044 0
13213 13213 1 0.001 304000 -0.113829 -0.0363222 0
4023 4023 1 0.001 304000 -0.113938 -0.034031 0
14390 14390 1 0.001 304000 -0.113773 -0.0375654 0
8182 8182 1 0.001 304000 -0.113133 -0.0384433 0
15797 15797 1 0.001 304000 -0.113096 -0.0354029 0
641 641 1 0.001 304000 -0.113224 -0.040762 0
8474 8474 1 0.001 304000 -0.113251 -0.0395942 0
10726 10726 1 0.001 304000 -0.112891 -0.0368138 0
1596 1596 1 0.001 304000 -0.11271 -0.0341105 0
2921 2921 1 0.001 304000 -0.112247 -0.0412099 0
9800 9800 1 0.001 304000 -0.112259 -0.037869 0
13710 13710 1 0.001 304000 -0.112161 -0.0358356 0
14846 14846 1 0.001 304000 -0.111614 -0.0388538 0
3495 3495 1 0.001 304000 -0.112202 -0.039681 0
2035 2035 1 0.001 304000 -0.111607 -0.0367974 0
10890 10890 1 0.001 304000 -0.111545 -0.0345027 0
11696 11696 1 0.001 304000 -0.111127 -0.0377696 0
7960 7960 1 0.001 304000 -0.111009 -0.0410767 0
8568 8568 1 0.001 304000 -0.111033 -0.0357698 0
11677 11677 1 0.001 304000 -0.111204 -0.0400221 0
11520 11520 1 0.001 304000 -0.110829 -0.0332026 0
3591 3591 1 0.001 304000 -0.110206 -0.0396534 0
474 474 1 0.001 304000 -0.110275 -0.0368684 0
6464 6464 1 0.001 304000 -0.110268 -0.0346344 0
11827 11827 1 0.001 304000 -0.110554 -0.0385505 0
1565 1565 1 0.001 304000 -0.109992 -0.0357461 0
3458 3458 1 0.001 304000 -0.109762 -0.0405368 0
2879 2879 1 0.001 304000 -0.109757 -0.0335916 0
7181 7181 1 0.001 304000 -0.109543 -0.0388666 0
10151 10151 1 0.001 304000 -0.109447 -0.037561 0
6122 6122 1 0.001 304000 -0.10886 -0.0409739 0
8235 8235 1 0.001 304000 -0.108955 -0.0352716 0
14071 14071 1 0.001 304000 -0.109058 -0.0365508 0
15598 15598 1 0.001 304000 -0.108757 -0.039876 0
14860 14860 1 0.001 304000 -0.108658 -0.0337054 0
998 998 1 0.001 304000 -0.108593 -0.0387219 0
4989 4989 1 0.001 304000 -0.108415 -0.0377445 0
11594 11594 1 0.001 304000 -0.107984 -0.0359028 0
8456 8456 1 0.001 304000 -0.107911 -0.0348032 0
4227 4227 1 0.001 304000 -0.107783 -0.0409654 0
1053 1053 1 0.001 304000 -0.107872 -0.0393449 0
8037 8037 1 0.001 304000 -0.107354 -0.0336791 0
1689 1689 1 0.001 304000 -0.107333 -0.0372883 0
7 7 1 0.001 304000 -0.106978 -0.0389458 0
5365 5365 1 0.001 304000 -0.107206 -0.0400492 0
8241 8241 1 0.001 304000 -0.106925 -0.0359816 0
4270 4270 1 0.001 304000 -0.106895 -0.0346985 0
11426 11426 1 0.001 304000 -0.106388 -0.0379805 0
12374 12374 1 0.001 304000 -0.106153 -0.0338444 0
14559 14559 1 0.001 304000 -0.106687 -0.0410731 0
1112 1112 1 0.001 304000 -0.106158 -0.0401303 0
6321 6321 1 0.001 304000 -0.105992 -0.0367382 0
12423 12423 1 0.001 304000 -0.106009 -0.0390834 0
8939 8939 1 0.001 304000 -0.112975 -0.0330463 0
16017 16017 1 0.001 304000 -0.139541 -0.0262718 0
7936 7936 1 0.001 304000 -0.139087 -0.031303 0
15376 15376 1 0.001 304000 -0.138765 -0.025402 0
13335 13335 1 0.001 304000 -0.13898 -0.0275904 0
8194 8194 1 0.001 304000 -0.138915 -0.0288662 0
15821 15821 1 0.001 304000 -0.138348 -0.0264278 0
15711 15711 1 0.001 304000 -0.138189 -0.0296387 0
3047 3047 1 0.001 304000 -0.137958 -0.0308636 0
3757 3757 1 0.001 304000 -0.137892 -0.0320129 0
136 136 1 0.001 304000 -0.137801 -0.0274151 0
1657 1657 1 0.001 304000 -0.137687 -0.0285772 0
7302 7302 1 0.001 304000 -0.13769 -0.0250999 0
8517 8517 1 0.001 304000 -0.137158 -0.032735 0
4105 4105 1 0.001 304000 -0.137213 -0.0300884 0
10659 10659 1 0.001 304000 -0.137197 -0.0263328 0
11653 11653 1 0.001 304000 -0.136537 -0.0254591 0
12480 12480 1 0.001 304000 -0.136852 -0.0311093 0
1910 1910 1 0.001 304000 -0.136626 -0.0291417 0
5266 5266 1 0.001 304000 -0.136113 -0.0267269 0
7362 7362 1 0.001 304000 -0.136588 -0.0279533 0
9834 9834 1 0.001 304000 -0.136315 -0.0321857 0
7769 7769 1 0.001 304000 -0.136026 -0.0300946 0
1563 1563 1 0.001 304000 -0.135581 -0.029153 0
14551 14551 1 0.001 304000 -0.13574 -0.0312919 0
15304 15304 1 0.001 304000 -0.135415 -0.0281544 0
6075 6075 1 0.001 304000 -0.134575 -0.0288298 0
7717 7717 1 0.001 304000 -0.135023 -0.0320509 0
13668 13668 1 0.001 304000 -0.134928 -0.0270261 0
15249 15249 1 0.001 304000 -0.135029 -0.0304074 0
1873 1873 1 0.001 304000 -0.134867 -0.025855 0
8726 8726 1 0.001 304000 -0.134172 -0.0328821 0
8414 8414 1 0.001 304000 -0.134134 -0.0278716 0
9132 9132 1 0.001 304000 -0.134163 -0.0298189 0
15478 15478 1 0.001 304000 -0.133917 -0.0317501 0
4507 4507 1 0.001 304000 -0.133418 -0.0307947 0
1706 1706 1 0.001 304000 -0.133538 -0.0270113 0
8015 8015 1 0.001 304000 -0.133154 -0.0286637 0
5793 5793 1 0.001 304000 -0.132952 -0.0296684 0
4290 4290 1 0.001 304000 -0.132609 -0.0276122 0
11506 11506 1 0.001 304000 -0.132689 -0.03249 0
7562 7562 1 0.001 304000 -0.132758 -0.0255402 0
9045 9045 1 0.001 304000 -0.132443 -0.031021 0
8935 8935 1 0.001 304000 -0.132066 -0.0263311 0
5327 5327 1 0.001 304000 -0.131958 -0.028967 0
2091 2091 1 0.001 304000 -0.131833 -0.0318795 0
761 761 1 0.001 304000 -0.131571 -0.0299965 0
11567 11567 1 0.001 304000 -0.131538 -0.0278967 0
12280 12280 1 0.001 304000 -0.131224 -0.0310757 0
13164 13164 1 0.001 304000 -0.131093 -0.0324923 0
6684 6684 1 0.001 304000 -0.131052 -0.0268757 0
15594 15594 1 0.001 304000 -0.131031 -0.0258191 0
5374 5374 1 0.001 304000 -0.130537 -0.0293187 0
7265 7265 1 0.001 304000 -0.130478 -0.0279736 0
7398 7398 1 0.001 304000 -0.130256 -0.0304384 0
15789 15789 1 0.001 304000 -0.130389 -0.0315745 0
5893 5893 1 0.001 304000 -0.130196 -0.0249341 0
14615 14615 1 0.001 304000 -0.129892 -0.026886 0
10712 10712 1 0.001 304000 -0.130019 -0.0326533 0
15970 15970 1 0.001 304000 -0.129368 -0.0291864 0
14463 14463 1 0.001 304000 -0.129497 -0.0257381 0
71 71 1 0.001 304000 -0.129071 -0.0281685 0
10660 10660 1 0.001 304000 -0.129052 -0.0303682 0
8 8 1 0.001 304000 -0.12942 -0.0313627 0
13803 13803 1 0.001 304000 -0.128696 -0.0249465 0
9159 9159 1 0.001 304000 -0.128799 -0.0270664 0
13253 13253 1 0.001 304000 -0.128628 -0.0324992 0
5525 5525 1 0.001 304000 -0.127901 -0.028464 0
9524 9524 1 0.001 304000 -0.128016 -0.0299124 0
6611 6611 1 0.001 304000 -0.128159 -0.0314325 0
384 384 1 0.001 304000 -0.128166 -0.0260127 0
13147 13147 1 0.001 304000 -0.127566 -0.0274202 0
16058 16058 1 0.001 304000 -0.127519 -0.0249953 0
989 989 1 0.001 304000 -0.127109 -0.0264661 0
810 810 1 0.001 304000 -0.12708 -0.0316479 0
9517 9517 1 0.001 304000 -0.126965 -0.0295751 0
13361 13361 1 0.001 304000 -0.126524 -0.0324616 0
11652 11652 1 0.001 304000 -0.126642 -0.0306369 0
128 128 1 0.001 304000 -0.126696 -0.0285172 0
198 198 1 0.001 304000 -0.126068 -0.0265847 0
14835 14835 1 0.001 304000 -0.126278 -0.0275784 0
6473 6473 1 0.001 304000 -0.126473 -0.0253732 0
2834 2834 1 0.001 304000 -0.125366 -0.0251827 0
1272 1272 1 0.001 304000 -0.125462 -0.0285165 0
6783 6783 1 0.001 304000 -0.12579 -0.0297525 0
7704 7704 1 0.001 304000 -0.125337 -0.032336 0
9895 9895 1 0.001 304000 -0.125804 -0.0312834 0
9883 9883 1 0.001 304000 -0.125109 -0.0262121 0
3554 3554 1 0.001 304000 -0.124216 -0.0267288 0
9444 9444 1 0.001 304000 -0.124335 -0.0284476 0
14909 14909 1 0.001 304000 -0.124168 -0.0323252 0
15426 15426 1 0.001 304000 -0.124624 -0.0297717 0
15938 15938 1 0.001 304000 -0.124971 -0.0274862 0
2990 2990 1 0.001 304000 -0.124752 -0.0313985 0
127 127 1 0.001 304000 -0.124014 -0.025591 0
9774 9774 1 0.001 304000 -0.123757 -0.0305502 0
5829 5829 1 0.001 304000 -0.123379 -0.0276121 0
14054 14054 1 0.001 304000 -0.123437 -0.0290665 0
1838 1838 1 0.001 304000 -0.123289 -0.0315161 0
8059 8059 1 0.001 304000 -0.123298 -0.0329424 0
1235 1235 1 0.001 304000 -0.123118 -0.026339 0
427 427 1 0.001 304000 -0.122756 -0.0250587 0
10046 10046 1 0.001 304000 -0.122702 -0.0298383 0
2687 2687 1 0.001 304000 -0.122456 -0.0283353 0
11917 11917 1 0.001 304000 -0.122141 -0.0311287 0
9649 9649 1 0.001 304000 -0.122042 -0.0267691 0
5455 5455 1 0.001 304000 -0.121645 -0.029105 0
3470 3470 1 0.001 304000 -0.121583 -0.030199 0
5302 5302 1 0.001 304000 -0.12143 -0.027975 0
12895 12895 1 0.001 304000 -0.121321 -0.0258907 0
10378 10378 1 0.001 304000 -0.120977 -0.0326517 0
4275 4275 1 0.001 304000 -0.120689 -0.0272191 0
12538 12538 1 0.001 304000 -0.120656 -0.0294339 0
10168 10168 1 0.001 304000 -0.12044 -0.0314667 0
14473 14473 1 0.001 304000 -0.120321 -0.0262176 0
12777 12777 1 0.001 304000 -0.120281 -0.0283602 0
13214 13214 1 0.001 304000 -0.119638 -0.0254192 0
15836 15836 1 0.001 304000 -0.119721 -0.0299701 0
13933 13933 1 0.001 304000 -0.11945 -0.0310448 0
15052 15052 1 0.001 304000 -0.119685 -0.0325724 0
1455 1455 1 0.001 304000 -0.119427 -0.0268508 0
7137 7137 1 0.001 304000 -0.11936 -0.0289399 0
14605 14605 1 0.001 304000 -0.119088 -0.0278827 0
3944 3944 1 0.001 304000 -0.118609 -0.0259537 0
16069 16069 1 0.001 304000 -0.118186 -0.0269355 0
1797 1797 1 0.001 304000 -0.118451 -0.0297588 0
1918 1918 1 0.001 304000 -0.118594 -0.0319337 0
9440 9440 1 0.001 304000 -0.118459 -0.0307931 0
13282 13282 1 0.001 304000 -0.118323 -0.0287436 0
10573 10573 1 0.001 304000 -0.117788 -0.0278447 0
4297 4297 1 0.001 304000 -0.11749 -0.0312829 0
11461 11461 1 0.001 304000 -0.117718 -0.0325992 0
5375 5375 1 0.001 304000 -0.11785 -0.0249565 0
5639 5639 1 0.001 304000 -0.117239 -0.0288128 0
5105 5105 1 0.001 304000 -0.117267 -0.0263525 0
6033 6033 1 0.001 304000 -0.117187 -0.0299938 0
240 240 1 0.001 304000 -0.116404 -0.0256145 0
2431 2431 1 0.001 304000 -0.11649 -0.032287 0
10157 10157 1 0.001 304000 -0.116528 -0.0279413 0
14147 14147 1 0.001 304000 -0.116529 -0.030914 0
6833 6833 1 0.001 304000 -0.115931 -0.0266705 0
10498 10498 1 0.001 304000 -0.116188 -0.0296544 0
2996 2996 1 0.001 304000 -0.115233 -0.0252834 0
1362 1362 1 0.001 304000 -0.115658 -0.0314597 0
5316 5316 1 0.001 304000 -0.115162 -0.0276715 0
9210 9210 1 0.001 304000 -0.115551 -0.0286603 0
11392 11392 1 0.001 304000 -0.11513 -0.0297492 0
9807 9807 1 0.001 304000 -0.114873 -0.0264121 0
7743 7743 1 0.001 304000 -0.114888 -0.0321126 0
11412 11412 1 0.001 304000 -0.1147 -0.0306956 0
4857 4857 1 0.001 304000 -0.120513 -0.0248482 0
8352 8352 1 0.001 304000 -0.113996 -0.0327824 0
12874 12874 1 0.001 304000 -0.114078 -0.0273819 0
6008 6008 1 0.001 304000 -0.114203 -0.0290214 0
11814 11814 1 0.001 304000 -0.113951 -0.0258089 0
11597 11597 1 0.001 304000 -0.113875 -0.0315937 0
3552 3552 1 0.001 304000 -0.113872 -0.0247992 0
8156 8156 1 0.001 304000 -0.11326 -0.0266991 0
13553 13553 1 0.001 304000 -0.113497 -0.0297497 0
9308 9308 1 0.001 304000 -0.113202 -0.0308447 0
13200 13200 1 0.001 304000 -0.113272 -0.0281969 0
10854 10854 1 0.001 304000 -0.112421 -0.029476 0
1406 1406 1 0.001 304000 -0.112529 -0.0316436 0
7036 7036 1 0.001 304000 -0.112456 -0.0273478 0
16496 16496 1 0.001 304000 -0.112077 -0.0283545 0
4151 4151 1 0.001 304000 -0.112234 -0.0256171 0
6091 6091 1 0.001 304000 -0.111617 -0.0267593 0
6356 6356 1 0.001 304000 -0.111932 -0.0325847 0
14006 14006 1 0.001 304000 -0.112005 -0.0305774 0
2152 2152 1 0.001 304000 -0.111184 -0.0289572 0
621 621 1 0.001 304000 -0.111145 -0.0318527 0
8418 8418 1 0.001 304000 -0.110984 -0.0302376 0
1187 1187 1 0.001 304000 -0.110703 -0.027707 0
5844 5844 1 0.001 304000 -0.110786 -0.0250159 0
5101 5101 1 0.001 304000 -0.110233 -0.0312631 0
698 698 1 0.001 304000 -0.110059 -0.0291101 0
12845 12845 1 0.001 304000 -0.110288 -0.0262533 0
10769 10769 1 0.001 304000 -0.109734 -0.0303837 0
11439 11439 1 0.001 304000 -0.109483 -0.0269157 0
13833 13833 1 0.001 304000 -0.109928 -0.0324128 0
4870 4870 1 0.001 304000 -0.108704 -0.0317833 0
6266 6266 1 0.001 304000 -0.109251 -0.0282535 0
14072 14072 1 0.001 304000 -0.108902 -0.0295687 0
12031 12031 1 0.001 304000 -0.108858 -0.0259399 0
7561 7561 1 0.001 304000 -0.108433 -0.0305375 0
10021 10021 1 0.001 304000 -0.108187 -0.028279 0
11288 11288 1 0.001 304000 -0.108414 -0.0270617 0
14901 14901 1 0.001 304000 -0.10737 -0.0307271 0
1143 1143 1 0.001 304000 -0.10784 -0.0326058 0
10576 10576 1 0.001 304000 -0.10754 -0.0294834 0
16035 16035 1 0.001 304000 -0.107714 -0.0259024 0
1431 1431 1 0.001 304000 -0.107317 -0.0268794 0
5926 5926 1 0.001 304000 -0.107154 -0.027926 0
5295 5295 1 0.001 304000 -0.106652 -0.0315101 0
11256 11256 1 0.001 304000 -0.106809 -0.0250481 0
11361 11361 1 0.001 304000 -0.10673 -0.0326905 0
3267 3267 1 0.001 304000 -0.106275 -0.0297562 0
11356 11356 1 0.001 304000 -0.106599 -0.0261255 0
10080 10080 1 0.001 304000 -0.106214 -0.0271652 0
16182 16182 1 0.001 304000 -0.106283 -0.0285612 0
1278 1278 1 0.001 304000 -0.108208 -0.0249354 0
14255 14255 1 0.001 304000 -0.139432 -0.0213787 0
954 954 1 0.001 304000 -0.139341 -0.0197531 0
8662 8662 1 0.001 304000 -0.139134 -0.0183633 0
12737 12737 1 0.001 304000 -0.139011 -0.0232903 0
8791 8791 1 0.001 304000 -0.138774 -0.0222854 0
15233 15233 1 0.001 304000 -0.138595 -0.020701 0
6410 6410 1 0.001 304000 -0.138464 -0.024279 0
15146 15146 1 0.001 304000 -0.138313 -0.019581 0
7656 7656 1 0.001 304000 -0.13803 -0.0215802 0
8088 8088 1 0.001 304000 -0.137961 -0.0229748 0
6799 6799 1 0.001 304000 -0.13807 -0.0178933 0
995 995 1 0.001 304000 -0.137986 -0.0166417 0
6288 6288 1 0.001 304000 -0.137275 -0.01952 0
4271 4271 1 0.001 304000 -0.137478 -0.020646 0
10999 10999 1 0.001 304000 -0.136874 -0.0217268 0
11157 11157 1 0.001 304000 -0.136993 -0.0173001 0
14812 14812 1 0.001 304000 -0.136799 -0.0242244 0
5279 5279 1 0.001 304000 -0.137079 -0.0184292 0
4614 4614 1 0.001 304000 -0.136925 -0.0228709 0
10141 10141 1 0.001 304000 -0.136322 -0.0200871 0
11767 11767 1 0.001 304000 -0.135787 -0.0232263 0
8985 8985 1 0.001 304000 -0.135973 -0.0190138 0
1749 1749 1 0.001 304000 -0.135629 -0.0245604 0
10081 10081 1 0.001 304000 -0.135987 -0.017758 0
6364 6364 1 0.001 304000 -0.135269 -0.0212544 0
15228 15228 1 0.001 304000 -0.135056 -0.0200421 0
16121 16121 1 0.001 304000 -0.134895 -0.022536 0
955 955 1 0.001 304000 -0.134951 -0.0187177 0
8635 8635 1 0.001 304000 -0.134588 -0.0176032 0
6667 6667 1 0.001 304000 -0.134558 -0.0236528 0
15330 15330 1 0.001 304000 -0.134502 -0.0247147 0
608 608 1 0.001 304000 -0.133768 -0.0225016 0
3079 3079 1 0.001 304000 -0.13405 -0.0197819 0
10905 10905 1 0.001 304000 -0.133861 -0.0186739 0
16519 16519 1 0.001 304000 -0.133723 -0.0168668 0
1417 1417 1 0.001 304000 -0.133012 -0.0234761 0
5015 5015 1 0.001 304000 -0.133361 -0.0207028 0
95 95 1 0.001 304000 -0.133501 -0.0243654 0
11452 11452 1 0.001 304000 -0.133044 -0.0193514 0
6854 6854 1 0.001 304000 -0.132631 -0.0223728 0
10850 10850 1 0.001 304000 -0.13292 -0.018298 0
11128 11128 1 0.001 304000 -0.132735 -0.0172187 0
9324 9324 1 0.001 304000 -0.135327 -0.0167122 0
8446 8446 1 0.001 304000 -0.132333 -0.0244891 0
943 943 1 0.001 304000 -0.132153 -0.0203501 0
6241 6241 1 0.001 304000 -0.131941 -0.0179151 0
15205 15205 1 0.001 304000 -0.131929 -0.0214738 0
14842 14842 1 0.001 304000 -0.131883 -0.0235579 0
10094 10094 1 0.001 304000 -0.13194 -0.0190566 0
3574 3574 1 0.001 304000 -0.131534 -0.0225497 0
16146 16146 1 0.001 304000 -0.131251 -0.0246851 0
2531 2531 1 0.001 304000 -0.131205 -0.0172038 0
5757 5757 1 0.001 304000 -0.130848 -0.0214511 0
9541 9541 1 0.001 304000 -0.13093 -0.0193917 0
7087 7087 1 0.001 304000 -0.130839 -0.0236551 0
10322 10322 1 0.001 304000 -0.130613 -0.0182454 0
12137 12137 1 0.001 304000 -0.130374 -0.0226555 0
13817 13817 1 0.001 304000 -0.130395 -0.0202835 0
10145 10145 1 0.001 304000 -0.129944 -0.0172326 0
145 145 1 0.001 304000 -0.129605 -0.0237502 0
4725 4725 1 0.001 304000 -0.129554 -0.0214259 0
2349 2349 1 0.001 304000 -0.128891 -0.0192871 0
8053 8053 1 0.001 304000 -0.12922 -0.0203519 0
12910 12910 1 0.001 304000 -0.129031 -0.0225177 0
11755 11755 1 0.001 304000 -0.129111 -0.0181652 0
10382 10382 1 0.001 304000 -0.128795 -0.0171019 0
7431 7431 1 0.001 304000 -0.128377 -0.0216183 0
4325 4325 1 0.001 304000 -0.12842 -0.0238129 0
12850 12850 1 0.001 304000 -0.127857 -0.0228474 0
1953 1953 1 0.001 304000 -0.127756 -0.0205912 0
9217 9217 1 0.001 304000 -0.127527 -0.0176034 0
6562 6562 1 0.001 304000 -0.127014 -0.0239804 0
708 708 1 0.001 304000 -0.127684 -0.0186707 0
10006 10006 1 0.001 304000 -0.127026 -0.0217746 0
13795 13795 1 0.001 304000 -0.12684 -0.019568 0
3675 3675 1 0.001 304000 -0.126675 -0.0207255 0
15396 15396 1 0.001 304000 -0.125857 -0.024051 0
8125 8125 1 0.001 304000 -0.12631 -0.018602 0
10398 10398 1 0.001 304000 -0.126091 -0.0174193 0
11996 11996 1 0.001 304000 -0.12646 -0.0229694 0
168 168 1 0.001 304000 -0.125879 -0.021441 0
4164 4164 1 0.001 304000 -0.125293 -0.0190151 0
12335 12335 1 0.001 304000 -0.125803 -0.0201436 0
14894 14894 1 0.001 304000 -0.12497 -0.0177081 0
5269 5269 1 0.001 304000 -0.125068 -0.0221129 0
234 234 1 0.001 304000 -0.125056 -0.0232518 0
3023 3023 1 0.001 304000 -0.124675 -0.0243772 0
12113 12113 1 0.001 304000 -0.124089 -0.018748 0
12764 12764 1 0.001 304000 -0.124954 -0.0208874 0
210 210 1 0.001 304000 -0.123959 -0.0173889 0
16089 16089 1 0.001 304000 -0.124492 -0.0198596 0
13199 13199 1 0.001 304000 -0.123778 -0.020772 0
318 318 1 0.001 304000 -0.12382 -0.0220361 0
2443 2443 1 0.001 304000 -0.123539 -0.0240664 0
11106 11106 1 0.001 304000 -0.12298 -0.0179764 0
5139 5139 1 0.001 304000 -0.123168 -0.0194022 0
6431 6431 1 0.001 304000 -0.12298 -0.01668 0
5874 5874 1 0.001 304000 -0.122872 -0.0213397 0
1210 1210 1 0.001 304000 -0.122815 -0.0232065 0
14921 14921 1 0.001 304000 -0.122512 -0.0202039 0
7506 7506 1 0.001 304000 -0.122314 -0.0222454 0
7091 7091 1 0.001 304000 -0.121815 -0.0191764 0
13846 13846 1 0.001 304000 -0.121827 -0.0211078 0
4576 4576 1 0.001 304000 -0.121762 -0.0246538 0
16430 16430 1 0.001 304000 -0.121764 -0.0233258 0
2957 2957 1 0.001 304000 -0.121549 -0.0181078 0
2182 2182 1 0.001 304000 -0.121113 -0.0222197 0
2157 2157 1 0.001 304000 -0.121233 -0.0202125 0
9298 9298 1 0.001 304000 -0.12064 -0.0186671 0
11091 11091 1 0.001 304000 -0.120734 -0.0236926 0
10493 10493 1 0.001 304000 -0.120466 -0.017538 0
10139 10139 1 0.001 304000 -0.120152 -0.022757 0
13009 13009 1 0.001 304000 -0.119993 -0.0195928 0
16046 16046 1 0.001 304000 -0.11991 -0.0207054 0
2022 2022 1 0.001 304000 -0.120094 -0.0217154 0
45 45 1 0.001 304000 -0.119506 -0.0180481 0
12752 12752 1 0.001 304000 -0.119579 -0.0235638 0
7329 7329 1 0.001 304000 -0.118979 -0.0225159 0
6686 6686 1 0.001 304000 -0.118811 -0.0190178 0
4074 4074 1 0.001 304000 -0.118917 -0.0168854 0
302 302 1 0.001 304000 -0.119115 -0.0245348 0
2505 2505 1 0.001 304000 -0.118681 -0.0200797 0
14293 14293 1 0.001 304000 -0.119045 -0.0213992 0
14312 14312 1 0.001 304000 -0.118602 -0.0235771 0
15156 15156 1 0.001 304000 -0.11794 -0.02262 0
448 448 1 0.001 304000 -0.117407 -0.0238968 0
12361 12361 1 0.001 304000 -0.117891 -0.0212771 0
13459 13459 1 0.001 304000 -0.11775 -0.0180357 0
1923 1923 1 0.001 304000 -0.116932 -0.0227198 0
258 258 1 0.001 304000 -0.117198 -0.0204849 0
7647 7647 1 0.001 304000 -0.1168 -0.0215901 0
11950 11950 1 0.001 304000 -0.116503 -0.0244998 0
587 587 1 0.001 304000 -0.116675 -0.0194667 0
16295 16295 1 0.001 304000 -0.116504 -0.0182706 0
1669 1669 1 0.001 304000 -0.117168 -0.0168674 0
16602 16602 1 0.001 304000 -0.116156 -0.0234524 0
15570 15570 1 0.001 304000 -0.115967 -0.0221951 0
14349 14349 1 0.001 304000 -0.115987 -0.0203587 0
10635 10635 1 0.001 304000 -0.116038 -0.0170266 0
5168 5168 1 0.001 304000 -0.115379 -0.0242487 0
11604 11604 1 0.001 304000 -0.115314 -0.017974 0
6699 6699 1 0.001 304000 -0.115359 -0.0193294 0
12123 12123 1 0.001 304000 -0.11517 -0.022753 0
1264 1264 1 0.001 304000 -0.114848 -0.0216965 0
15165 15165 1 0.001 304000 -0.114948 -0.0206517 0
12909 12909 1 0.001 304000 -0.120596 -0.0165268 0
5081 5081 1 0.001 304000 -0.121655 -0.0165365 0
5448 5448 1 0.001 304000 -0.114452 -0.0237053 0
1280 1280 1 0.001 304000 -0.11438 -0.0188526 0
12807 12807 1 0.001 304000 -0.114028 -0.0201171 0
12857 12857 1 0.001 304000 -0.113987 -0.0223787 0
1530 1530 1 0.001 304000 -0.113818 -0.0178509 0
4119 4119 1 0.001 304000 -0.113392 -0.0192062 0
5328 5328 1 0.001 304000 -0.113471 -0.021296 0
13359 13359 1 0.001 304000 -0.113449 -0.0234308 0
10257 10257 1 0.001 304000 -0.109596 -0.0247533 0
13880 13880 1 0.001 304000 -0.112667 -0.0246147 0
9783 9783 1 0.001 304000 -0.112813 -0.020166 0
16432 16432 1 0.001 304000 -0.112727 -0.022416 0
10285 10285 1 0.001 304000 -0.112559 -0.018345 0
14762 14762 1 0.001 304000 -0.112361 -0.023512 0
9692 9692 1 0.001 304000 -0.112474 -0.0171705 0
1784 1784 1 0.001 304000 -0.112066 -0.021289 0
13405 13405 1 0.001 304000 -0.111919 -0.0194219 0
2671 2671 1 0.001 304000 -0.111544 -0.0225495 0
11786 11786 1 0.001 304000 -0.111452 -0.0240792 0
7709 7709 1 0.001 304000 -0.110972 -0.0197812 0
6629 6629 1 0.001 304000 -0.11122 -0.0181343 0
7539 7539 1 0.001 304000 -0.111314 -0.017056 0
10227 10227 1 0.001 304000 -0.110935 -0.0208838 0
6514 6514 1 0.001 304000 -0.110622 -0.0231205 0
8457 8457 1 0.001 304000 -0.110137 -0.0189279 0
14152 14152 1 0.001 304000 -0.110269 -0.0171685 0
2511 2511 1 0.001 304000 -0.110069 -0.0214712 0
14513 14513 1 0.001 304000 -0.109754 -0.0224808 0
16030 16030 1 0.001 304000 -0.109602 -0.0236298 0
11441 11441 1 0.001 304000 -0.109761 -0.0201486 0
4570 4570 1 0.001 304000 -0.109237 -0.0168532 0
13391 13391 1 0.001 304000 -0.108586 -0.0197759 0
5500 5500 1 0.001 304000 -0.108937 -0.02141 0
14151 14151 1 0.001 304000 -0.108702 -0.0227002 0
9636 9636 1 0.001 304000 -0.109071 -0.018173 0
6618 6618 1 0.001 304000 -0.108467 -0.0237807 0
216 216 1 0.001 304000 -0.107658 -0.0176868 0
8078 8078 1 0.001 304000 -0.108045 -0.0187351 0
7904 7904 1 0.001 304000 -0.107803 -0.0216643 0
13106 13106 1 0.001 304000 -0.107546 -0.020631 0
3775 3775 1 0.001 304000 -0.107222 -0.0240224 0
10434 10434 1 0.001 304000 -0.107306 -0.0227016 0
11268 11268 1 0.001 304000 -0.106196 -0.0191107 0
13059 13059 1 0.001 304000 -0.107303 -0.0166051 0
9773 9773 1 0.001 304000 -0.107304 -0.0195964 0
12272 12272 1 0.001 304000 -0.10672 -0.0215967 0
1174 1174 1 0.001 304000 -0.106374 -0.0205257 0
9680 9680 1 0.001 304000 -0.10634 -0.0233478 0
4404 4404 1 0.001 304000 -0.106255 -0.0167378 0
6148 6148 1 0.001 304000 -0.106541 -0.0181798 0
15599 15599 1 0.001 304000 -0.106018 -0.0243892 0
14123 14123 1 0.001 304000 -0.1134 -0.0165811 0
15245 15245 1 0.001 304000 -0.139022 -0.0161922 0
15795 15795 1 0.001 304000 -0.139175 -0.00924658 0