Catch Bond Verification

2 atoms
1 atom types
1 bond types

-0.1 0.1 xlo xhi
-0.1 0.1 ylo yhi
-0.01 0.01 zlo zhi

Atoms

1 1 1 0 0 0
2 1 1 0.0025 0 0