ITEM: TIMESTEP
0
ITEM: NUMBER OF ENTRIES
1774
ITEM: BOX BOUNDS ss ss pp
-2.5001900000000001e-02 2.4961299999999999e-02
-2.4993700000000001e-02 2.4959100000000001e-02
-2.5000000000000001e-03 2.5000000000000001e-03
ITEM: ENTRIES c_1[1] c_1[2] c_1[3] c_2[1] c_2[2] c_2[3]
2 46 562 0.00171265 -0.000158657 1.21782e-07 
2 46 686 0.0018604 -0.000179748 1.46755e-07 
2 46 222 0.00208377 -0.000216407 1.9088e-07 
2 46 306 0.00270935 -0.000367632 3.68854e-07 
2 46 651 0.00227017 -0.000252586 2.34499e-07 
2 54 609 0.00191248 -0.000187737 1.56321e-07 
2 54 406 0.00257116 -0.000325801 3.2101e-07 
2 54 723 0.001925 -0.000189705 1.58684e-07 
2 54 404 0.00241726 -0.000285718 2.74033e-07 
2 54 117 0.00140366 -0.000120696 7.88114e-08 
2 67 694 0.00149892 -0.000131638 9.0826e-08 
2 67 251 0.00260136 -0.000334429 3.30981e-07 
2 67 604 0.00167749 -0.000153949 1.16286e-07 
2 67 645 0.00197002 -0.000196941 1.67388e-07 
2 87 408 0.00158667 -0.000142286 1.0284e-07 
2 87 251 0.00151788 -0.00013389 9.33425e-08 
2 87 159 0.00181143 -0.00017251 1.38131e-07 
2 87 720 0.00273893 -0.000377427 3.79873e-07 
2 159 408 0.00228788 -0.00025634 2.39005e-07 
2 159 645 0.00261927 -0.000339674 3.37017e-07 
2 159 251 0.00215298 -0.00022917 2.06295e-07 
2 159 483 0.00177749 -0.000167641 1.32358e-07 
2 172 720 0.00224003 -0.000246332 2.26982e-07 
2 172 766 0.0023372 -0.000267123 2.51912e-07 
2 172 694 0.00215888 -0.000230292 2.0765e-07 
2 172 645 0.00233289 -0.000266163 2.50764e-07 
2 172 333 0.00166615 -0.000152456 1.1455e-07 
2 183 651 0.00265309 -0.000349856 3.48677e-07 
2 183 296 0.00206722 -0.000213461 1.87322e-07 
2 183 408 0.00240963 -0.000283883 2.71859e-07 
2 183 222 0.00219504 -0.0002373 2.16104e-07 
2 183 662 0.00227255 -0.000253088 2.35102e-07 
2 205 296 0.00159949 -0.000143891 1.04674e-07 
2 205 408 0.00192927 -0.00019038 1.59495e-07 
2 205 340 0.00219137 -0.000236578 2.15234e-07 
2 210 766 0.00270548 -0.000366374 3.67434e-07 
2 210 406 0.00183901 -0.000176555 1.42944e-07 
2 210 483 0.00251594 -0.000310706 3.03442e-07 
2 210 651 0.00141717 -0.000122212 8.04524e-08 
2 222 736 0.0027037 -0.000365796 3.6678e-07 
2 222 483 0.00277284 -0.000389058 3.92865e-07 
2 222 654 0.00150308 -0.00013213 9.13738e-08 
2 251 645 0.0016154 -0.000145901 1.06979e-07 
2 251 720 0.00204115 -0.000208904 1.81818e-07 
2 296 340 0.00180673 -0.000171829 1.37322e-07 
2 296 662 0.00211804 -0.000222633 1.98402e-07 
2 340 662 0.00225776 -0.00024999 2.31381e-07 
2 406 651 0.00261392 -0.000338097 3.35204e-07 
2 406 609 0.00269483 -0.000362937 3.63547e-07 
2 406 766 0.00144688 -0.000125586 8.41337e-08 
2 408 483 0.00268465 -0.000359693 3.59872e-07 
2 483 651 0.00188408 -0.000183342 1.51053e-07 
2 504 654 0.00263488 -0.000344328 3.42356e-07 
2 504 662 0.00150846 -0.000132768 9.20866e-08 
2 504 736 0.00169419 -0.000156171 1.18875e-07 
2 609 760 0.00199741 -0.000201467 1.72844e-07 
2 609 766 0.0014185 -0.000122362 8.06156e-08 
2 645 720 0.00140356 -0.000120685 7.87995e-08 
2 654 736 0.00151615 -0.000133683 9.31111e-08 
2 61 694 0.00199104 -0.000200406 1.71563e-07 
2 61 635 0.00214655 -0.000227951 2.04824e-07 
2 61 241 0.00230788 -0.000260655 2.44175e-07 
2 61 333 0.00253967 -0.000317088 3.10888e-07 
2 61 604 0.00171595 -0.000159104 1.22306e-07 
2 762 766 0.00216832 -0.0002321 2.09832e-07 
2 333 762 0.00194064 -0.000192191 1.61672e-07 
2 333 543 0.00253899 -0.000316905 3.10675e-07 
2 706 762 0.00177776 -0.00016768 1.32403e-07 
2 694 720 0.00260215 -0.000334659 3.31245e-07 
2 604 694 0.00190659 -0.000186818 1.55219e-07 
2 604 635 0.00212118 -0.000223212 1.99101e-07 
2 106 522 0.00159535 -0.000143371 1.04079e-07 
2 106 729 0.00143403 -0.000124119 8.25289e-08 
2 106 284 0.00173434 -0.000161617 1.25255e-07 
2 106 422 0.00268079 -0.00035847 3.58483e-07 
2 106 524 0.00166799 -0.000152697 1.1483e-07 
2 117 609 0.00166937 -0.000152878 1.15041e-07 
2 117 597 0.00261005 -0.00033696 3.33896e-07 
2 117 760 0.00143849 -0.000124627 8.30839e-08 
2 117 524 0.002563 -0.000323518 3.18363e-07 
2 182 562 0.00219729 -0.000237742 2.16637e-07 
2 182 612 0.0019363 -0.000191498 1.60838e-07 
2 182 404 0.00264026 -0.000345948 3.44211e-07 
2 182 686 0.00213118 -0.000225069 2.01343e-07 
2 306 654 0.0022503 -0.000248444 2.29523e-07 
2 306 374 0.00225047 -0.000248478 2.29563e-07 
2 306 686 0.00209843 -0.000219048 1.94071e-07 
2 306 736 0.00266843 -0.000354595 3.54079e-07 
2 374 686 0.00256025 -0.000322751 3.17473e-07 
2 374 478 0.00147561 -0.000128903 8.77887e-08 
2 404 562 0.00154437 -0.000137081 9.69319e-08 
2 404 597 0.00254031 -0.000317264 3.11093e-07 
2 404 723 0.0016755 -0.000153687 1.1598e-07 
2 435 522 0.00267093 -0.000355374 3.54965e-07 
2 435 723 0.00269086 -0.00036167 3.62112e-07 
2 435 597 0.00212476 -0.000223876 1.99902e-07 
2 478 683 0.0014102 -0.000121428 7.96031e-08 
2 524 723 0.00258138 -0.00032869 3.24354e-07 
2 524 597 0.00199368 -0.000200844 1.72092e-07 
2 562 686 0.00173669 -0.000161941 1.25635e-07 
2 723 760 0.00253064 -0.000314643 3.08039e-07 
2 760 762 0.00257613 -0.000327204 3.22634e-07 
2 284 368 0.00254257 -0.000317881 3.11811e-07 
2 284 714 0.00171428 -0.000158878 1.22041e-07 
2 284 729 0.00182488 -0.000174472 1.40463e-07 
2 429 524 0.00235111 -0.000270256 2.55651e-07 
2 429 762 0.00263364 -0.000343956 3.41929e-07 
2 429 760 0.0014043 -0.000120769 7.88893e-08 
2 429 706 0.00154915 -0.000137662 9.75885e-08 
2 610 714 0.00190383 -0.000186388 1.54704e-07 
2 31 649 0.001817 -0.000173319 1.39093e-07 
2 31 252 0.00251925 -0.000311587 3.04471e-07 
2 31 341 0.00149427 -0.000131089 9.0214e-08 
2 31 683 0.00197128 -0.000197146 1.67635e-07 
2 40 341 0.00229605 -0.000258093 2.41106e-07 
2 40 374 0.00226567 -0.000251641 2.33364e-07 
2 40 182 0.00259779 -0.000333393 3.29786e-07 
2 40 478 0.00166769 -0.000152658 1.14785e-07 
2 40 42 0.00184723 -0.000177776 1.44401e-07 
2 42 435 0.00278066 -0.000391804 3.95917e-07 
2 42 607 0.00249535 -0.000305287 2.97098e-07 
2 42 612 0.00152224 -0.000134411 9.3927e-08 
2 42 341 0.00214494 -0.000227647 2.04457e-07 
2 97 612 0.00183395 -0.000175806 1.42052e-07 
2 97 287 0.00276348 -0.000385805 3.89241e-07 
2 97 607 0.00183064 -0.000175318 1.41471e-07 
2 97 435 0.00174875 -0.000163608 1.27597e-07 
2 97 755 0.00144547 -0.000125424 8.39564e-08 
2 219 341 0.00184825 -0.000177927 1.44581e-07 
2 219 607 0.00176715 -0.000166181 1.30632e-07 
2 219 287 0.00279764 -0.000397854 4.02624e-07 
2 287 451 0.00180475 -0.000171542 1.3698e-07 
2 287 422 0.00246963 -0.000298676 2.89332e-07 
2 287 607 0.00202925 -0.000206855 1.79344e-07 
2 341 683 0.00242482 -0.000287549 2.76201e-07 
2 422 522 0.00193019 -0.000190526 1.59671e-07 
2 422 616 0.00154215 -0.000136812 9.66279e-08 
2 522 729 0.00224761 -0.000247888 2.28854e-07 
2 522 597 0.00205041 -0.000210512 1.8376e-07 
2 607 755 0.00214348 -0.000227373 2.04126e-07 
2 279 549 0.00258721 -0.000330352 3.26276e-07 
2 279 616 0.00158273 -0.000141795 1.0228e-07 
2 279 714 0.00278217 -0.000392338 3.9651e-07 
2 616 729 0.00176988 -0.000166565 1.31086e-07 
2 60 750 0.00144411 -0.000125268 8.37856e-08 
2 60 238 0.00237991 -0.000276869 2.63529e-07 
2 60 126 0.00229489 -0.000257844 2.40807e-07 
2 60 130 0.00189796 -0.000185479 1.53613e-07 
2 60 641 0.00194313 -0.000192589 1.62151e-07 
2 116 351 0.0027309 -0.000374734 3.76851e-07 
2 116 451 0.00189935 -0.000185694 1.53871e-07 
2 116 252 0.00269069 -0.000361615 3.6205e-07 
2 116 219 0.00168227 -0.000154583 1.17023e-07 
2 116 204 0.0023737 -0.000275428 2.61815e-07 
2 130 346 0.00147668 -0.000129028 8.79264e-08 
2 130 750 0.00250889 -0.000308838 3.01257e-07 
2 130 589 0.002586 -0.000330006 3.25876e-07 
2 157 162 0.00164109 -0.000149192 1.1077e-07 
2 157 739 0.00142619 -0.000123229 8.15588e-08 
2 157 431 0.00207419 -0.000214697 1.88814e-07 
2 157 351 0.002631 -0.000343165 3.41023e-07 
2 162 480 0.00247585 -0.000300261 2.91196e-07 
2 162 383 0.00258562 -0.000329897 3.2575e-07 
2 162 278 0.00265103 -0.000349224 3.47956e-07 
2 162 431 0.00274467 -0.000379364 3.82043e-07 
2 204 589 0.00143915 -0.000124702 8.31653e-08 
2 204 366 0.00265283 -0.000349776 3.48586e-07 
2 204 347 0.00194994 -0.000193683 1.63466e-07 
2 204 451 0.00171524 -0.000159009 1.22194e-07 
2 238 755 0.00263569 -0.000344571 3.42633e-07 
2 238 451 0.00183686 -0.000176236 1.42564e-07 
2 238 750 0.00148182 -0.000129629 8.8592e-08 
2 248 366 0.00271783 -0.000370407 3.71982e-07 
2 248 581 0.00143512 -0.000124243 8.26647e-08 
2 248 539 0.00167618 -0.000153777 1.16085e-07 
2 248 394 0.00183251 -0.000175593 1.41799e-07 
2 252 278 0.00187909 -0.000182579 1.5014e-07 
2 252 431 0.0018175 -0.000173393 1.3918e-07 
2 252 649 0.0015172 -0.000133809 9.32514e-08 
2 278 649 0.00187013 -0.000181217 1.4851e-07 
2 278 431 0.00159722 -0.000143606 1.04347e-07 
2 346 581 0.00215211 -0.000229003 2.06094e-07 
2 346 353 0.00278845 -0.000394565 3.98981e-07 
2 347 351 0.0017741 -0.000167161 1.3179e-07 
2 347 739 0.00202974 -0.000206939 1.79445e-07 
2 347 366 0.00226077 -0.000250617 2.32134e-07 
2 347 589 0.00227434 -0.000253465 2.35555e-07 
2 351 431 0.00188556 -0.000183569 1.51325e-07 
2 366 581 0.00191987 -0.000188897 1.57714e-07 
2 366 589 0.00150743 -0.000132645 9.19494e-08 
2 383 433 0.00162729 -0.000147418 1.08723e-07 
2 383 480 0.0023975 -0.000280996 2.68434e-07 
2 383 739 0.00162229 -0.000146779 1.07987e-07 
2 394 665 0.00172158 -0.000159871 1.23204e-07 
2 394 581 0.00151238 -0.000133234 9.26077e-08 
2 433 539 0.00153263 -0.00013566 9.53302e-08 
2 433 739 0.00191852 -0.000188685 1.5746e-07 
2 451 750 0.00198983 -0.000200205 1.71321e-07 
2 539 581 0.00273262 -0.00037531 3.77497e-07 
2 539 739 0.00229925 -0.000258784 2.41934e-07 
2 589 750 0.00189519 -0.00018505 1.53099e-07 
2 90 346 0.00202049 -0.000205359 1.77539e-07 
2 90 128 0.00168192 -0.000154537 1.1697e-07 
2 90 225 0.00182527 -0.00017453 1.40532e-07 
2 126 238 0.00260038 -0.000334144 3.30652e-07 
2 126 641 0.00197892 -0.000198401 1.69147e-07 
2 126 616 0.0015933 -0.000143115 1.03786e-07 
2 126 422 0.00259014 -0.000331193 3.27247e-07 
2 128 130 0.00266858 -0.00035464 3.5413e-07 
2 128 331 0.00142346 -0.000122921 8.12234e-08 
2 128 685 0.0025651 -0.000324103 3.19042e-07 
2 128 346 0.00146468 -0.000127635 8.63873e-08 
2 318 331 0.00241249 -0.000284571 2.72674e-07 
2 318 608 0.00216955 -0.000232337 2.10118e-07 
2 318 685 0.00184324 -0.000177182 1.43692e-07 
2 353 641 0.0024947 -0.000305119 2.969e-07 
2 353 393 0.00243532 -0.000290113 2.79234e-07 
2 51 98 0.00252405 -0.000312869 3.05969e-07 
2 51 136 0.00263038 -0.000342977 3.40807e-07 
2 51 527 0.00184253 -0.000177076 1.43566e-07 
2 51 389 0.00151188 -0.000133175 9.25418e-08 
2 51 667 0.0014525 -0.000126231 8.48414e-08 
2 57 621 0.00254046 -0.000317305 3.11141e-07 
2 57 98 0.00148275 -0.000129737 8.87124e-08 
2 57 136 0.00183476 -0.000175925 1.42194e-07 
2 57 667 0.00220865 -0.000239994 2.19351e-07 
2 57 527 0.00278368 -0.000392874 3.97105e-07 
2 80 165 0.0016863 -0.000155119 1.17648e-07 
2 80 606 0.00155591 -0.000138487 9.85218e-08 
2 80 518 0.00193488 -0.000191272 1.60567e-07 
2 80 123 0.00238314 -0.000277621 2.64423e-07 
2 98 527 0.00229581 -0.000258041 2.41044e-07 
2 98 734 0.00228924 -0.000256633 2.39356e-07 
2 98 614 0.00278414 -0.000393035 3.97284e-07 
2 107 190 0.00159376 -0.000143172 1.03852e-07 
2 107 350 0.00156558 -0.000139673 9.98658e-08 
2 107 136 0.00245309 -0.000294512 2.84427e-07 
2 107 614 0.00144694 -0.000125593 8.41413e-08 
2 107 606 0.00238926 -0.000279053 2.66126e-07 
2 123 598 0.00257695 -0.000327436 3.22903e-07 
2 123 580 0.00154562 -0.000137233 9.71028e-08 
2 123 484 0.0022328 -0.000244854 2.25204e-07 
2 136 614 0.00184644 -0.000177658 1.44259e-07 
2 136 667 0.00172748 -0.000160676 1.24149e-07 
2 165 626 0.0021105 -0.000221249 1.96729e-07 
2 165 225 0.00201309 -0.000204102 1.76022e-07 
2 165 665 0.00180504 -0.000171583 1.3703e-07 
2 165 394 0.00249923 -0.0003063 2.98285e-07 
2 187 275 0.00179241 -0.000169767 1.34876e-07 
2 187 734 0.00162927 -0.000147671 1.09015e-07 
2 187 553 0.00256695 -0.00032462 3.19641e-07 
2 187 523 0.00249488 -0.000305167 2.96957e-07 
2 187 621 0.00237959 -0.000276795 2.63441e-07 
2 190 248 0.00179982 -0.000170832 1.36138e-07 
2 190 539 0.00226186 -0.000250846 2.32409e-07 
2 190 665 0.0020517 -0.000210737 1.84031e-07 
2 190 433 0.00257827 -0.000327809 3.23335e-07 
2 208 433 0.00173841 -0.000162177 1.25913e-07 
2 208 276 0.00213853 -0.000226442 2.03002e-07 
2 208 667 0.0021132 -0.000221743 1.97327e-07 
2 275 580 0.00168244 -0.000154606 1.1705e-07 
2 275 358 0.00225888 -0.000250223 2.31661e-07 
2 275 553 0.00172442 -0.000160258 1.23658e-07 
2 276 383 0.00250983 -0.000309087 3.01548e-07 
2 276 480 0.00141281 -0.000121722 7.99207e-08 
2 276 389 0.00227674 -0.000253972 2.36164e-07 
2 350 518 0.00223726 -0.000245765 2.263e-07 
2 350 614 0.00178105 -0.000168146 1.32955e-07 
2 350 665 0.00266154 -0.000352455 3.51641e-07 
2 350 358 0.00257575 -0.000327097 3.22511e-07 
2 358 518 0.00221632 -0.000241527 2.21198e-07 
2 358 734 0.00251076 -0.000309332 3.01835e-07 
2 358 621 0.00163189 -0.000148008 1.09403e-07 
2 389 667 0.00161086 -0.000145325 1.06318e-07 
2 518 580 0.00238277 -0.000277535 2.64321e-07 
2 518 606 0.00213168 -0.000225162 2.01456e-07 
2 527 555 0.00217869 -0.000234103 2.12249e-07 
2 527 757 0.00201949 -0.000205189 1.77333e-07 
2 555 734 0.00208781 -0.000217131 1.91754e-07 
2 555 757 0.0020984 -0.000219043 1.94065e-07 
2 606 665 0.00178411 -0.000168582 1.33471e-07 
2 614 621 0.0026891 -0.000361107 3.61475e-07 
2 621 734 0.00158977 -0.000142673 1.03281e-07 
2 62 80 0.00261888 -0.000339559 3.36885e-07 
2 62 263 0.00176751 -0.000166232 1.30692e-07 
2 62 105 0.00201038 -0.000203646 1.75471e-07 
2 62 626 0.00177228 -0.000166904 1.31486e-07 
2 62 123 0.00240535 -0.000282862 2.70648e-07 
2 225 626 0.00264077 -0.000346103 3.44388e-07 
2 225 394 0.00270624 -0.000366619 3.67711e-07 
2 225 318 0.00163958 -0.000148997 1.10545e-07 
2 484 512 0.00145589 -0.00012662 8.52695e-08 
2 484 598 0.00212844 -0.000224559 2.00728e-07 
2 484 580 0.00191507 -0.000188143 1.56809e-07 
2 512 598 0.00159903 -0.000143833 1.04608e-07 
2 608 626 0.00182459 -0.000174429 1.40413e-07 
2 10 523 0.0019816 -0.000198842 1.69678e-07 
2 10 267 0.00217691 -0.000233758 2.11833e-07 
2 10 753 0.00200364 -0.000202511 1.74102e-07 
2 10 169 0.00218566 -0.000235461 2.13886e-07 
2 10 553 0.0015096 -0.000132904 9.22385e-08 
2 169 401 0.00213121 -0.000225075 2.01351e-07 
2 169 485 0.00194364 -0.000192671 1.62249e-07 
2 169 267 0.00200876 -0.000203373 1.75141e-07 
2 236 416 0.0014576 -0.000126817 8.54863e-08 
2 236 684 0.00167542 -0.000153676 1.15968e-07 
2 236 534 0.00176837 -0.000166353 1.30835e-07 
2 236 364 0.00193633 -0.000191502 1.60844e-07 
2 267 453 0.00151962 -0.000134097 9.35751e-08 
2 267 553 0.00163187 -0.000148005 1.094e-07 
2 267 275 0.00270976 -0.000367765 3.69004e-07 
2 268 684 0.00146325 -0.00012747 8.62049e-08 
2 268 555 0.002299 -0.000258731 2.4187e-07 
2 268 754 0.0017795 -0.000167926 1.32696e-07 
2 268 757 0.00144462 -0.000125327 8.385e-08 
2 364 684 0.00201124 -0.00020379 1.75645e-07 
2 364 555 0.00265022 -0.000348976 3.47672e-07 
2 364 534 0.00205231 -0.000210843 1.84159e-07 
2 416 684 0.00231859 -0.000262998 2.4698e-07 
2 416 557 0.00225062 -0.00024851 2.29602e-07 
2 416 754 0.00155783 -0.000138722 9.87874e-08 
2 523 553 0.0022807 -0.000254811 2.3717e-07 
2 523 753 0.00144631 -0.00012552 8.40612e-08 
2 534 753 0.00146586 -0.000127772 8.65379e-08 
2 684 754 0.00163629 -0.000148573 1.10055e-07 
2 246 453 0.00207953 -0.000215648 1.89963e-07 
2 246 423 0.00185632 -0.000179134 1.46022e-07 
2 246 577 0.00241269 -0.000284618 2.72729e-07 
2 246 512 0.00269103 -0.000361722 3.62171e-07 
2 453 580 0.00247973 -0.000301254 2.92363e-07 
2 453 484 0.00145676 -0.00012672 8.53794e-08 
2 453 512 0.00226894 -0.000252328 2.34189e-07 
2 7 557 0.00244227 -0.000291825 2.81256e-07 
2 7 188 0.00160874 -0.000145057 1.0601e-07 
2 7 574 0.00234914 -0.000269809 2.55118e-07 
2 124 156 0.00183904 -0.000176559 1.4295e-07 
2 124 574 0.00172046 -0.000159718 1.23025e-07 
2 124 501 0.0018135 -0.000172811 1.38488e-07 
2 124 401 0.0019918 -0.000200532 1.71716e-07 
2 179 188 0.00261038 -0.000337057 3.34008e-07 
2 179 557 0.00182898 -0.000175073 1.4118e-07 
2 179 587 0.00144316 -0.000125159 8.36662e-08 
2 179 731 0.0016218 -0.000146716 1.07915e-07 
2 179 291 0.00198993 -0.000200221 1.71341e-07 
2 188 213 0.00178972 -0.000169382 1.34419e-07 
2 188 557 0.00165495 -0.00015099 1.12849e-07 
2 188 534 0.00261114 -0.000337279 3.34263e-07 
2 213 534 0.00160732 -0.000144877 1.05804e-07 
2 213 501 0.0024151 -0.000285197 2.73416e-07 
2 213 236 0.00268601 -0.000360125 3.60361e-07 
2 213 753 0.00156476 -0.000139572 9.97517e-08 
2 401 501 0.00279229 -0.000395934 4.00499e-07 
2 401 485 0.00206982 -0.000213923 1.87879e-07 
2 401 613 0.002096 -0.000218609 1.9354e-07 
2 501 523 0.00269677 -0.000363561 3.64253e-07 
2 501 753 0.00151614 -0.000133682 9.31091e-08 
2 587 731 0.00254214 -0.000317762 3.11673e-07 
2 613 668 0.00212788 -0.000224456 2.00603e-07 
2 218 688 0.00243513 -0.000290067 2.79179e-07 
2 218 485 0.00197297 -0.000197423 1.67969e-07 
2 218 271 0.0020858 -0.00021677 1.91318e-07 
2 218 538 0.0019877 -0.000199852 1.70895e-07 
2 218 423 0.00190452 -0.000186496 1.54833e-07 
2 271 485 0.00151007 -0.000132959 9.23005e-08 
2 271 613 0.0021887 -0.000236054 2.14602e-07 
2 423 485 0.00165174 -0.000150572 1.12366e-07 
2 18 664 0.00216922 -0.000232273 2.1004e-07 
2 18 291 0.00205106 -0.000210625 1.83896e-07 
2 18 638 0.00202544 -0.000206203 1.78557e-07 
2 18 731 0.00150076 -0.000131855 9.10676e-08 
2 22 541 0.00147413 -0.000128731 8.75977e-08 
2 22 184 0.00236618 -0.000273694 2.59749e-07 
2 22 551 0.00183679 -0.000176226 1.42552e-07 
2 22 239 0.00278894 -0.000394741 3.99176e-07 
2 22 411 0.00248149 -0.000301704 2.92893e-07 
2 93 319 0.00174367 -0.000162905 1.26769e-07 
2 93 244 0.00192157 -0.000189165 1.58035e-07 
2 93 551 0.00177407 -0.000167157 1.31785e-07 
2 93 468 0.00198131 -0.000198794 1.6962e-07 
2 102 574 0.0014891 -0.000130481 8.95384e-08 
2 102 541 0.00270788 -0.000367153 3.68313e-07 
2 102 124 0.00260248 -0.000334753 3.31354e-07 
2 102 587 0.0027915 -0.000395652 4.00186e-07 
2 102 239 0.00229368 -0.000257584 2.40496e-07 
2 108 638 0.00228721 -0.000256198 2.38833e-07 
2 108 239 0.00158927 -0.000142611 1.0321e-07 
2 108 587 0.00238864 -0.000278908 2.65954e-07 
2 108 482 0.0024006 -0.000281732 2.69307e-07 
2 149 244 0.00150735 -0.000132636 9.19399e-08 
2 149 154 0.00161844 -0.000146288 1.07423e-07 
2 149 735 0.00143339 -0.000124046 8.24496e-08 
2 149 482 0.00235337 -0.000270767 2.5626e-07 
2 149 664 0.00216124 -0.000230742 2.08194e-07 
2 154 244 0.00229353 -0.000257552 2.40457e-07 
2 154 619 0.0014497 -0.000125909 8.44881e-08 
2 154 561 0.00206177 -0.000212501 1.86161e-07 
2 154 735 0.00196134 -0.000195526 1.65684e-07 
2 156 184 0.00164267 -0.000149397 1.11006e-07 
2 156 613 0.00204586 -0.00020972 1.82803e-07 
2 156 574 0.0019936 -0.000200831 1.72076e-07 
2 184 327 0.00270562 -0.00036642 3.67485e-07 
2 184 541 0.00181237 -0.000172646 1.38292e-07 
2 184 668 0.00222238 -0.000242745 2.22664e-07 
2 239 541 0.00153941 -0.000136479 9.62526e-08 
2 239 482 0.00251256 -0.000309809 3.02393e-07 
2 244 482 0.00182163 -0.000173996 1.39898e-07 
2 244 561 0.00238961 -0.000279136 2.66224e-07 
2 291 731 0.00201389 -0.000204238 1.76186e-07 
2 291 587 0.00140922 -0.000121319 7.94843e-08 
2 291 638 0.00186627 -0.000180633 1.47812e-07 
2 319 411 0.0024918 -0.000304366 2.96017e-07 
2 319 561 0.00184344 -0.000177211 1.43727e-07 
2 327 740 0.0025688 -0.00032514 3.20244e-07 
2 327 344 0.00176262 -0.000165545 1.29881e-07 
2 342 740 0.00150259 -0.000132071 9.13089e-08 
2 342 690 0.00165701 -0.000151259 1.13162e-07 
2 342 468 0.00226112 -0.000250691 2.32223e-07 
2 342 678 0.0023873 -0.000278596 2.65582e-07 
2 342 646 0.00147075 -0.000128338 8.71635e-08 
2 344 678 0.00166064 -0.000151733 1.13711e-07 
2 344 369 0.00267572 -0.000356876 3.56672e-07 
2 344 690 0.00272009 -0.000371151 3.72821e-07 
2 411 740 0.00210908 -0.000220989 1.96416e-07 
2 411 551 0.00159189 -0.000142938 1.03584e-07 
2 411 468 0.00144948 -0.000125884 8.44604e-08 
2 468 646 0.00144395 -0.00012525 8.37652e-08 
2 468 740 0.00261136 -0.000337345 3.34339e-07 
2 482 638 0.001979 -0.000198413 1.69162e-07 
2 541 551 0.00168886 -0.00015546 1.18045e-07 
2 561 619 0.00278831 -0.000394515 3.98926e-07 
2 619 735 0.00268857 -0.00036094 3.61285e-07 
2 638 664 0.00175167 -0.000164016 1.28077e-07 
2 664 735 0.00177612 -0.000167448 1.32129e-07 
2 690 740 0.00249804 -0.000305989 2.97921e-07 
2 113 164 0.00160188 -0.000144192 1.05019e-07 
2 113 613 0.00204906 -0.000210276 1.83474e-07 
2 113 668 0.00140915 -0.000121311 7.94754e-08 
2 113 688 0.0026192 -0.000339653 3.36992e-07 
2 113 271 0.00214656 -0.000227954 2.04828e-07 
2 153 369 0.00266758 -0.000354331 3.53778e-07 
2 153 678 0.00148395 -0.000129878 8.88684e-08 
2 153 254 0.00218357 -0.000235052 2.13393e-07 
2 153 759 0.00149211 -0.000130835 8.99316e-08 
2 153 344 0.00231495 -0.000262199 2.46024e-07 
2 164 270 0.00235994 -0.000272264 2.58046e-07 
2 164 688 0.0016311 -0.000147906 1.09286e-07 
2 164 369 0.00236368 -0.000273119 2.59064e-07 
2 164 668 0.00210839 -0.000220862 1.96262e-07 
2 254 769 0.00264473 -0.000347304 3.45761e-07 
2 254 678 0.00211813 -0.00022265 1.98422e-07 
2 254 690 0.00222392 -0.000243055 2.23039e-07 
2 369 668 0.00226813 -0.000252158 2.33985e-07 
2 678 690 0.00148934 -0.000130509 8.95697e-08 
2 17 390 0.00153039 -0.00013539 9.50264e-08 
2 17 89 0.00171573 -0.000159074 1.22271e-07 
2 17 211 0.00234203 -0.000268206 2.53205e-07 
2 17 756 0.00217675 -0.000233727 2.11795e-07 
2 17 266 0.00225689 -0.000249809 2.31163e-07 
2 32 679 0.00228472 -0.000255667 2.38197e-07 
2 32 622 0.00142816 -0.000123453 8.18028e-08 
2 32 211 0.00192473 -0.000189663 1.58634e-07 
2 32 85 0.00176281 -0.000165572 1.29913e-07 
2 32 390 0.00159441 -0.000143253 1.03944e-07 
2 34 355 0.0016784 -0.00015407 1.16427e-07 
2 34 181 0.00185538 -0.000178993 1.45854e-07 
2 34 293 0.00184956 -0.000178122 1.44814e-07 
2 34 767 0.00164498 -0.000149695 1.11351e-07 
2 35 141 0.00143119 -0.000123797 8.2177e-08 
2 35 536 0.00165402 -0.000150869 1.1271e-07 
2 35 458 0.00197943 -0.000198485 1.69248e-07 
2 69 488 0.00251842 -0.000311364 3.04211e-07 
2 69 548 0.00150189 -0.000131988 9.12165e-08 
2 69 410 0.00227757 -0.000254148 2.36375e-07 
2 69 738 0.00274704 -0.000380169 3.82944e-07 
2 69 500 0.00217157 -0.000232727 2.10589e-07 
2 85 622 0.00173438 -0.000161624 1.25262e-07 
2 85 99 0.00223248 -0.00024479 2.25127e-07 
2 85 237 0.00177227 -0.000166903 1.31485e-07 
2 85 679 0.00160967 -0.000145175 1.06145e-07 
2 89 691 0.00142473 -0.000123065 8.13795e-08 
2 89 129 0.00269672 -0.000363545 3.64236e-07 
2 89 743 0.00270061 -0.000364799 3.65654e-07 
2 99 237 0.00214542 -0.000227739 2.04568e-07 
2 99 635 0.00198332 -0.000199127 1.70022e-07 
2 99 241 0.00199044 -0.000200306 1.71443e-07 
2 129 266 0.00140022 -0.000120313 7.8397e-08 
2 129 756 0.00163364 -0.000148232 1.09661e-07 
2 129 548 0.00156097 -0.000139107 9.92232e-08 
2 141 679 0.00244734 -0.00029308 2.82737e-07 
2 141 536 0.00144357 -0.000125206 8.37177e-08 
2 181 412 0.00279231 -0.000395944 4.0051e-07 
2 181 691 0.00151858 -0.000133973 9.3436e-08 
2 211 390 0.00267077 -0.000355324 3.54908e-07 
2 211 458 0.00183243 -0.000175582 1.41785e-07 
2 211 679 0.00225765 -0.000249968 2.31354e-07 
2 237 679 0.00159351 -0.000143141 1.03816e-07 
2 241 242 0.00179622 -0.000170314 1.35524e-07 
2 241 622 0.00266569 -0.000353742 3.53108e-07 
2 241 635 0.00147072 -0.000128335 8.71601e-08 
2 242 543 0.00179733 -0.000170473 1.35712e-07 
2 242 333 0.00220427 -0.000239122 2.18301e-07 
2 242 635 0.00259253 -0.000331877 3.28037e-07 
2 242 355 0.00272099 -0.000371448 3.73155e-07 
2 250 458 0.00244413 -0.000292286 2.818e-07 
2 250 738 0.00183522 -0.000175994 1.42276e-07 
2 250 488 0.00183748 -0.000176328 1.42674e-07 
2 250 462 0.00165066 -0.000150432 1.12203e-07 
2 250 536 0.00159097 -0.000142823 1.03453e-07 
2 266 498 0.00265756 -0.000351226 3.50241e-07 
2 266 743 0.00160214 -0.000144224 1.05055e-07 
2 293 355 0.00258244 -0.000328994 3.24706e-07 
2 293 543 0.00151491 -0.000133536 9.29458e-08 
2 293 412 0.00146543 -0.000127721 8.64823e-08 
2 293 706 0.00175466 -0.000164431 1.28567e-07 
2 691 767 0.00166733 -0.000152611 1.1473e-07 
2 355 543 0.00141688 -0.000122179 8.04173e-08 
2 355 767 0.00148589 -0.000130104 8.91197e-08 
2 390 622 0.00210391 -0.000220044 1.95273e-07 
2 390 691 0.0016993 -0.000156856 1.19675e-07 
2 410 743 0.00211448 -0.000221978 1.9761e-07 
2 410 498 0.00176029 -0.000165218 1.29496e-07 
2 412 429 0.00272664 -0.000373319 3.7526e-07 
2 412 706 0.00178478 -0.000168677 1.33583e-07 
2 458 756 0.0015632 -0.00013938 9.95338e-08 
2 458 548 0.00234094 -0.000267961 2.52912e-07 
2 462 738 0.00254181 -0.000317672 3.11568e-07 
2 462 536 0.00278883 -0.000394703 3.99134e-07 
2 488 738 0.00162873 -0.000147601 1.08935e-07 
2 488 536 0.00253668 -0.000316276 3.09942e-07 
2 488 756 0.00228546 -0.000255824 2.38385e-07 
2 543 767 0.00270275 -0.000365488 3.66433e-07 
2 548 756 0.00157373 -0.000140679 1.01009e-07 
2 622 767 0.00233735 -0.000267157 2.51952e-07 
2 1 373 0.00177969 -0.000167953 1.32727e-07 
2 1 376 0.00177176 -0.000166831 1.314e-07 
2 1 8 0.0026625 -0.000352752 3.5198e-07 
2 1 540 0.00258626 -0.000330082 3.25963e-07 
2 21 403 0.00235995 -0.000272266 2.58048e-07 
2 21 89 0.00214213 -0.000227119 2.03819e-07 
2 21 96 0.00240504 -0.000282788 2.7056e-07 
2 21 592 0.00162565 -0.000147208 1.08482e-07 
2 21 691 0.00260814 -0.000336401 3.33252e-07 
2 30 181 0.00266109 -0.000352316 3.51483e-07 
2 30 34 0.00262932 -0.000342662 3.40446e-07 
2 30 52 0.00257069 -0.00032567 3.20858e-07 
2 30 368 0.00176205 -0.000165465 1.29787e-07 
2 30 412 0.00161378 -0.000145696 1.06743e-07 
2 52 192 0.00175499 -0.000164477 1.28622e-07 
2 52 96 0.00172463 -0.000160287 1.23693e-07 
2 52 198 0.00156053 -0.000139053 9.91622e-08 
2 52 592 0.00214971 -0.000228549 2.05546e-07 
2 79 338 0.001502 -0.000132002 9.12319e-08 
2 79 508 0.00185128 -0.000178381 1.45122e-07 
2 79 644 0.00171374 -0.000158805 1.21955e-07 
2 79 473 0.00224999 -0.000248379 2.29445e-07 
2 79 373 0.00226995 -0.000252541 2.34445e-07 
2 96 592 0.00202383 -0.000205929 1.78226e-07 
2 96 368 0.00269106 -0.000361732 3.62182e-07 
2 96 181 0.00208466 -0.000216566 1.91072e-07 
2 198 376 0.00234635 -0.000269179 2.54366e-07 
2 198 592 0.00193003 -0.000190501 1.59641e-07 
2 198 202 0.00264455 -0.00034725 3.45699e-07 
2 338 473 0.00217982 -0.000234323 2.12514e-07 
2 338 410 0.00232631 -0.0002647 2.49016e-07 
2 338 644 0.00266601 -0.00035384 3.53219e-07 
2 368 610 0.00152254 -0.000134448 9.39684e-08 
2 373 747 0.00177013 -0.000166601 1.31128e-07 
2 373 644 0.00165811 -0.000151402 1.13327e-07 
2 376 403 0.00253591 -0.000316069 3.09701e-07 
2 376 592 0.00203999 -0.000208703 1.81575e-07 
2 403 743 0.00165071 -0.000150439 1.12211e-07 
2 403 498 0.00270974 -0.00036776 3.68998e-07 
2 403 644 0.00162802 -0.000147511 1.08831e-07 
2 498 644 0.00156085 -0.000139092 9.92064e-08 
2 498 743 0.00159731 -0.000143617 1.0436e-07 
2 8 373 0.00164648 -0.000149889 1.11575e-07 
2 8 540 0.0020392 -0.000208567 1.81411e-07 
2 8 191 0.00262497 -0.000341365 3.38958e-07 
2 8 747 0.00166941 -0.000152883 1.15047e-07 
2 47 279 0.00237818 -0.000276465 2.63048e-07 
2 47 746 0.00227257 -0.000253092 2.35106e-07 
2 47 354 0.00152411 -0.000134636 9.41794e-08 
2 47 549 0.00144655 -0.000125548 8.40923e-08 
2 47 160 0.00206103 -0.000212371 1.86004e-07 
2 145 191 0.00149445 -0.000131111 9.02385e-08 
2 145 193 0.00278987 -0.00039507 3.99541e-07 
2 145 680 0.00178101 -0.000168141 1.32949e-07 
2 145 532 0.00271284 -0.000368771 3.70139e-07 
2 160 284 0.00264357 -0.000346951 3.45358e-07 
2 160 279 0.00155174 -0.000137978 9.79453e-08 
2 160 729 0.00273061 -0.00037464 3.76745e-07 
2 160 714 0.00171999 -0.000159654 1.2295e-07 
2 161 376 0.00216211 -0.000230909 2.08394e-07 
2 161 540 0.00177451 -0.000167219 1.31859e-07 
2 161 226 0.00146723 -0.00012793 8.6713e-08 
2 185 391 0.00229854 -0.00025863 2.4175e-07 
2 185 191 0.00245735 -0.000295579 2.85685e-07 
2 185 578 0.00188475 -0.000183445 1.51176e-07 
2 185 572 0.00254363 -0.000318169 3.12147e-07 
2 185 540 0.00159121 -0.000142853 1.03487e-07 
2 191 540 0.00245346 -0.000294605 2.84537e-07 
2 191 308 0.00158207 -0.000141713 1.02186e-07 
2 192 198 0.00156693 -0.00013984 1.00055e-07 
2 192 202 0.00140114 -0.000120415 7.85079e-08 
2 192 226 0.00278355 -0.000392827 3.97054e-07 
2 192 746 0.00266756 -0.000354322 3.53768e-07 
2 202 714 0.00271486 -0.000369431 3.70883e-07 
2 202 354 0.00252486 -0.000313086 3.06222e-07 
2 202 746 0.00184886 -0.000178019 1.44691e-07 
2 226 746 0.00158303 -0.000141832 1.02322e-07 
2 354 391 0.00261439 -0.000338235 3.35363e-07 
2 354 633 0.0021418 -0.000227057 2.03744e-07 
2 354 549 0.0019927 -0.000200681 1.71895e-07 
2 391 746 0.00160051 -0.000144019 1.0482e-07 
2 391 572 0.0023034 -0.000259682 2.43011e-07 
2 391 633 0.00240637 -0.000283106 2.70937e-07 
2 680 747 0.00202075 -0.000205402 1.7759e-07 
2 11 134 0.00229139 -0.000257092 2.39906e-07 
2 11 353 0.00173862 -0.000162207 1.25948e-07 
2 11 641 0.00214744 -0.00022812 2.05028e-07 
2 11 29 0.00213055 -0.000224951 2.01202e-07 
2 11 393 0.00254966 -0.000319823 3.14071e-07 
2 29 134 0.00262711 -0.000342003 3.3969e-07 
2 29 633 0.00157886 -0.000141315 1.01732e-07 
2 29 549 0.00239881 -0.000281308 2.68804e-07 
2 134 303 0.00158606 -0.00014221 1.02753e-07 
2 134 305 0.00257455 -0.000326758 3.22119e-07 
2 134 761 0.00182622 -0.000174669 1.40698e-07 
2 142 630 0.00157815 -0.000141227 1.01632e-07 
2 142 155 0.00242205 -0.000286877 2.75405e-07 
2 142 193 0.00153895 -0.000136424 9.61902e-08 
2 142 496 0.00162441 -0.000147049 1.08299e-07 
2 142 215 0.00216743 -0.000231929 2.09626e-07 
2 155 308 0.00236487 -0.000273391 2.59389e-07 
2 155 630 0.00256155 -0.000323112 3.17892e-07 
2 155 532 0.00146466 -0.000127632 8.63838e-08 
2 155 231 0.00186636 -0.000180646 1.47828e-07 
2 193 308 0.00157483 -0.000140815 1.01163e-07 
2 193 362 0.00276124 -0.000385031 3.88377e-07 
2 203 748 0.00140423 -0.00012076 7.888e-08 
2 203 513 0.00157192 -0.000140455 1.00754e-07 