ITEM: TIMESTEP
0
ITEM: NUMBER OF ATOMS
769
ITEM: BOX BOUNDS ss ss pp
-2.5001900000000001e-02 2.4961299999999999e-02
-2.4993700000000001e-02 2.4959100000000001e-02
-2.5000000000000001e-03 2.5000000000000001e-03
ITEM: ATOMS id type mol x y
46 1 46 -0.0216133 -0.017215
54 1 54 -0.0176348 -0.017332
67 1 67 -0.0150297 -0.024773
87 1 87 -0.0190596 -0.024027
159 1 159 -0.018656 -0.0222611
172 1 172 -0.015076 -0.0211554
183 1 183 -0.0217568 -0.0214295
205 1 205 -0.0218911 -0.0249238
210 1 210 -0.0191386 -0.018522
222 1 222 -0.0220453 -0.0192535
251 1 251 -0.0175437 -0.0241045
296 1 296 -0.0223795 -0.0234007
340 1 340 -0.0239755 -0.0242475
406 1 406 -0.017908 -0.0198886
408 1 408 -0.0205642 -0.0235233
483 1 483 -0.0198424 -0.0209375
504 1 504 -0.0247194 -0.0206869
609 1 609 -0.0158863 -0.0181068
645 1 645 -0.0162088 -0.0231948
651 1 651 -0.020413 -0.0191419
654 1 654 -0.0233188 -0.0184551
662 1 662 -0.0239592 -0.0219898
720 1 720 -0.0171016 -0.0221118
736 1 736 -0.0247364 -0.0189928
766 1 766 -0.0165639 -0.019353
61 1 61 -0.0128246 -0.0229392
762 1 762 -0.014468 -0.0187973
333 1 333 -0.0135428 -0.0205032
706 1 706 -0.013053 -0.0177211
694 1 694 -0.0147837 -0.0232944
604 1 604 -0.0133648 -0.0245679
106 1 106 -0.0152315 -0.0127485
117 1 117 -0.0164732 -0.016544
182 1 182 -0.0211196 -0.0137052
306 1 306 -0.024191 -0.0163807
374 1 374 -0.0244787 -0.0141487
404 1 404 -0.0191086 -0.015416
435 1 435 -0.0189882 -0.0132216
478 1 478 -0.0248581 -0.0127227
524 1 524 -0.0150576 -0.0144074
562 1 562 -0.020594 -0.0158387
597 1 597 -0.0170069 -0.0139891
686 1 686 -0.022294 -0.0154836
723 1 723 -0.0174331 -0.0154176
760 1 760 -0.0150574 -0.0162895
284 1 284 -0.0135507 -0.0131761
429 1 429 -0.0136531 -0.0162929
610 1 610 -0.0128952 -0.0145909
31 1 31 -0.0239033 -0.00948963
40 1 40 -0.0232627 -0.012237
42 1 42 -0.0214435 -0.0119164
97 1 97 -0.0181764 -0.0116727
219 1 219 -0.0208519 -0.00927467
287 1 287 -0.018078 -0.00891097
341 1 341 -0.0225235 -0.0100632
422 1 422 -0.0159511 -0.0101661
522 1 522 -0.0166264 -0.0119743
607 1 607 -0.0194752 -0.0103826
612 1 612 -0.0199422 -0.012168
683 1 683 -0.0245855 -0.0113391
755 1 755 -0.0173348 -0.0104975
279 1 279 -0.0130257 -0.0104835
729 1 729 -0.0144156 -0.0115692
616 1 616 -0.0144531 -0.00979972
60 1 60 -0.0152259 -0.00614768
116 1 116 -0.0203233 -0.00767761
130 1 130 -0.015404 -0.00425809
157 1 157 -0.0229224 -0.00326932
162 1 162 -0.0245628 -0.00322172
204 1 204 -0.0191955 -0.00558894
238 1 238 -0.0168232 -0.00791194
248 1 248 -0.0181071 -0.00089938
252 1 252 -0.0229623 -0.00715272
278 1 278 -0.0243283 -0.00586236
346 1 346 -0.0150783 -0.00281778
347 1 347 -0.0197543 -0.00372078
351 1 351 -0.0209602 -0.00502202
366 1 366 -0.0175001 -0.00354856
383 1 383 -0.0225888 -0.00155177
394 1 394 -0.0163722 -0.000309288
431 1 431 -0.0228186 -0.00534091
433 1 433 -0.0210721 -0.000962111
451 1 451 -0.0184971 -0.00715556
480 1 480 -0.0248528 -0.000762911
539 1 539 -0.0196543 -0.00154417
581 1 581 -0.0169271 -0.00171619
589 1 589 -0.017879 -0.00500759
649 1 649 -0.0243645 -0.00773214
739 1 739 -0.0215706 -0.00281474
750 1 750 -0.0166398 -0.00644151
90 1 90 -0.0148135 -0.000814714
126 1 126 -0.0142412 -0.00822057
128 1 128 -0.0137793 -0.0021411
318 1 318 -0.0125775 -0.000233095
353 1 353 -0.0125942 -0.00408454
641 1 641 -0.0133104 -0.00647422
51 1 51 -0.0236559 0.00361313
57 1 57 -0.0217996 0.00390897
80 1 80 -0.0154037 0.00370122
98 1 98 -0.0218636 0.00539034
107 1 107 -0.0190562 0.00222866
123 1 123 -0.0152953 0.00608189
136 1 136 -0.0215058 0.00209789
165 1 165 -0.0154554 0.00201571
187 1 187 -0.0193596 0.00813771
190 1 190 -0.019048 0.00063492
208 1 208 -0.0219771 0.000522149
275 1 275 -0.0175672 0.00814456
276 1 276 -0.0241141 0.000441397
350 1 350 -0.0183253 0.00361315
358 1 358 -0.0186592 0.00616717
389 1 389 -0.0247915 0.00261503
518 1 518 -0.0166934 0.00514359
527 1 527 -0.0241594 0.00538553
555 1 555 -0.0228984 0.0071622
580 1 580 -0.0160415 0.00743545
606 1 606 -0.0167999 0.00301457
614 1 614 -0.020071 0.00326008
621 1 621 -0.0202754 0.0059414
665 1 665 -0.0170921 0.00125455
667 1 667 -0.0232286 0.0022249
734 1 734 -0.0208281 0.007432
757 1 757 -0.0249959 0.00722363
62 1 62 -0.0131389 0.00501622
225 1 225 -0.0138847 0.000756578
484 1 484 -0.0142248 0.00804133
512 1 512 -0.0127702 0.00810262
598 1 598 -0.0127531 0.00650368
608 1 608 -0.0127793 0.00192705
626 1 626 -0.0138599 0.00339723
10 1 10 -0.0177693 0.0113436
169 1 169 -0.0157901 0.0122709
236 1 236 -0.0226207 0.0108744
267 1 267 -0.0158789 0.0102641
268 1 268 -0.0246675 0.00863043
364 1 364 -0.0214156 0.00935878
416 1 416 -0.0238297 0.0116886
523 1 523 -0.0196139 0.0106196
534 1 534 -0.0209174 0.0113497
553 1 553 -0.0174614 0.00986573
684 1 684 -0.0234263 0.00940537
753 1 753 -0.0196383 0.0120657
754 1 754 -0.0247185 0.0104092
246 1 246 -0.0130002 0.0107838
453 1 453 -0.0145957 0.00945008
7 1 7 -0.0218949 0.0146707
124 1 124 -0.017989 0.0148175
179 1 179 -0.0237204 0.0156671
188 1 188 -0.0226865 0.0132702
213 1 213 -0.0209244 0.012957
401 1 401 -0.0160443 0.0143869
501 1 501 -0.0185125 0.0130812
557 1 557 -0.0242144 0.0139061
574 1 574 -0.0196359 0.0153152
587 1 587 -0.0224112 0.0162743
613 1 613 -0.0161153 0.0164817
218 1 218 -0.0125851 0.0145212
271 1 271 -0.0146428 0.0148624
423 1 423 -0.0127661 0.0126253
485 1 485 -0.0142177 0.0134134
18 1 18 -0.0249509 0.0182767
22 1 22 -0.0172541 0.0201858
93 1 93 -0.0201672 0.0220047
102 1 102 -0.0196704 0.0168039
108 1 108 -0.0212231 0.0183465
149 1 149 -0.0235163 0.0222554
154 1 154 -0.0238862 0.023831
156 1 156 -0.0181543 0.0166491
184 1 184 -0.0170143 0.0178318
239 1 239 -0.0198199 0.0190927
244 1 244 -0.022027 0.022488
291 1 291 -0.0230381 0.0175364
319 1 319 -0.0207272 0.023656
327 1 327 -0.0156571 0.0201724
342 1 342 -0.0167924 0.0240444
344 1 344 -0.01538 0.0219131
411 1 411 -0.0187067 0.0221977
468 1 468 -0.0190123 0.0236146
482 1 482 -0.021763 0.0206856
541 1 541 -0.0182809 0.0191281
551 1 551 -0.0190339 0.0206398
561 1 561 -0.022109 0.0248762
619 1 619 -0.0248973 0.0248699
638 1 638 -0.0232586 0.0193896
646 1 646 -0.0180941 0.024729
664 1 664 -0.0246696 0.0204276
690 1 690 -0.0152422 0.0246297
731 1 731 -0.0249032 0.0167767
735 1 735 -0.0249478 0.0221818
740 1 740 -0.0166274 0.0225509
113 1 113 -0.0141191 0.0169441
153 1 153 -0.0131895 0.0226619
164 1 164 -0.0127469 0.0177706
254 1 254 -0.0130282 0.0248395
369 1 369 -0.013497 0.0200121
678 1 678 -0.0145144 0.0233303
668 1 668 -0.0148175 0.018168
17 1 17 -0.00552775 -0.0195014
32 1 32 -0.0068884 -0.0215991
34 1 34 -0.0100051 -0.0186544
35 1 35 -0.0043648 -0.0235566
767 1 767 -0.00848981 -0.0192946
69 1 69 -0.00069576 -0.0194629
85 1 85 -0.00760766 -0.0232085
89 1 89 -0.00580851 -0.0178088
99 1 99 -0.00928707 -0.0246794
756 1 756 -0.00358906 -0.0204912
129 1 129 -0.00333272 -0.0188778
141 1 141 -0.00394749 -0.0249256
181 1 181 -0.00847886 -0.0175994
211 1 211 -0.00497186 -0.0217765
237 1 237 -0.00715542 -0.0249221
241 1 241 -0.0105238 -0.0231198
242 1 242 -0.0118114 -0.0218674
250 1 250 -0.00127971 -0.023563
266 1 266 -0.00413183 -0.017728
293 1 293 -0.0118265 -0.0189759
738 1 738 -0.000112001 -0.0221472
691 1 691 -0.00713994 -0.0183159
355 1 355 -0.00959928 -0.020283
390 1 390 -0.00697224 -0.0200069
410 1 410 -0.00228218 -0.0178287
412 1 412 -0.0112711 -0.0176198
458 1 458 -0.00315216 -0.0219921
462 1 462 -7.24485e-05 -0.0246887
488 1 488 -0.0016973 -0.0217736
536 1 536 -0.00279014 -0.0240628
543 1 543 -0.0110159 -0.0202557
548 1 548 -0.0021379 -0.0198823
679 1 679 -0.00608792 -0.023739
622 1 622 -0.00831632 -0.0216255
635 1 635 -0.0112504 -0.0243985
1 1 1 -0.004281 -0.0132259
21 1 21 -0.00651033 -0.0157849
30 1 30 -0.0106876 -0.0161152
52 1 52 -0.00938121 -0.0139012
79 1 79 -0.00105701 -0.0148093
96 1 96 -0.00890471 -0.0155587
198 1 198 -0.00833913 -0.0127396
743 1 743 -0.00363606 -0.0162045
714 1 714 -0.0118452 -0.0130028
338 1 338 -0.000586784 -0.0162358
368 1 368 -0.0113758 -0.0144931
373 1 373 -0.00250867 -0.0130642
376 1 376 -0.00599297 -0.0127695
403 1 403 -0.004395 -0.0147386
498 1 498 -0.00204325 -0.0160847
592 1 592 -0.00727945 -0.0143527
644 1 644 -0.00276739 -0.014702
8 1 8 -0.0023163 -0.011429
47 1 47 -0.0109181 -0.0093818
747 1 747 -0.000903414 -0.0123182
145 1 145 -0.00108267 -0.00857826
160 1 160 -0.0116994 -0.011289
161 1 161 -0.00597129 -0.0106075
185 1 185 -0.00497616 -0.00925355
191 1 191 -0.00255822 -0.0088152
192 1 192 -0.00981 -0.0121994
202 1 202 -0.0101901 -0.0108508
226 1 226 -0.0074312 -0.0107539
746 1 746 -0.00868113 -0.00978248
354 1 354 -0.00978905 -0.008358
391 1 391 -0.00726453 -0.00903759
540 1 540 -0.0041971 -0.010641
680 1 680 -0.00132724 -0.0103424
11 1 11 -0.0114531 -0.00539629
29 1 29 -0.00984567 -0.00679465
761 1 761 -0.00768688 -0.00401925
134 1 134 -0.00950513 -0.0041897
142 1 142 -0.00156972 -0.00429455
155 1 155 -0.0001106 -0.00622776
193 1 193 -0.00158204 -0.00583345
203 1 203 -0.00269446 -0.000345385
214 1 214 -0.00339996 -0.0020257
215 1 215 -0.00358462 -0.00349584
303 1 303 -0.00858673 -0.00289659
305 1 305 -0.00730903 -0.00553338
308 1 308 -0.00223514 -0.00726647
309 1 309 -0.00468493 -0.000947511
331 1 331 -0.0124469 -0.00264205
348 1 348 -0.00579008 -0.00326971
362 1 362 -0.0043289 -0.00555199
393 1 393 -0.0103726 -0.0030869
420 1 420 -0.00974039 -0.00051953
685 1 685 -0.0112841 -0.00154636
491 1 491 -0.000639212 -0.00140672
496 1 496 -0.0014594 -0.00267389
509 1 509 -0.00658412 -0.00080141
549 1 549 -0.0117768 -0.00821769
569 1 569 -0.00572981 -0.00546295
572 1 572 -0.00617314 -0.00700916
578 1 578 -0.00378401 -0.00779373
630 1 630 -0.000122033 -0.00366624
633 1 633 -0.00826779 -0.00685033
37 1 37 -0.00125752 0.00323921
43 1 43 -0.00021256 0.00518637
63 1 63 -0.00134473 0.00749755
105 1 105 -0.012106 0.00329147
120 1 120 -0.00651952 0.00207386
144 1 144 -0.0110161 0.00746683
147 1 147 -0.0108733 0.00166593
751 1 751 -0.00763006 0.0030671
749 1 749 -0.00296915 0.00384872
176 1 176 -0.00417738 0.00278608
189 1 189 -0.00251285 0.00534967
194 1 194 -0.00929429 0.00320546
748 1 748 -0.00159171 0.000523981
234 1 234 -0.00772499 0.00653547
263 1 263 -0.0113862 0.00478788
286 1 286 -0.00571954 0.000849401
294 1 294 -0.00975478 0.00674741
314 1 314 -0.0084669 0.000193435
343 1 343 -0.00482884 0.00407901
360 1 360 -0.00300184 0.00161336
425 1 425 -0.00380226 0.00678403
503 1 503 -0.00915414 0.00530967
505 1 505 -0.000649143 0.00174443
513 1 513 -0.003989 0.00054629
531 1 531 -0.00611522 0.00654021
542 1 542 -0.00855818 0.00173897
568 1 568 -0.00403983 0.00530358
637 1 637 -0.00629653 0.00370442
634 1 634 -0.00657863 0.00513354
617 1 617 -0.00696654 0.00803072
5 1 5 -0.00177666 0.00956756
13 1 13 -0.011163 0.0117654
44 1 44 -0.00789539 0.0117022
171 1 171 -0.00627931 0.0113191
232 1 232 -0.00886271 0.00853838
233 1 233 -0.00465109 0.0110082
704 1 704 -0.00608095 0.00966952
255 1 255 -0.00353596 0.0101265
257 1 257 -0.00878174 0.0101506
326 1 326 -0.00462867 0.0084332
681 1 681 -0.00283453 0.00850879
506 1 506 -0.00034562 0.0107785
577 1 577 -0.0114314 0.00895079
628 1 628 -0.0108084 0.0102747
12 1 12 -0.00117665 0.0148187
20 1 20 -0.00473353 0.0164137
139 1 139 -0.00701076 0.0160041
229 1 229 -0.00588021 0.013754
708 1 708 -0.00289494 0.0149594
334 1 334 -0.00410375 0.0140219
339 1 339 -0.00256098 0.01257
380 1 380 -0.00937167 0.0131211
687 1 687 -0.00108769 0.0132503
674 1 674 -0.00914712 0.0161509
538 1 538 -0.0106195 0.0148168
584 1 584 -0.00820222 0.0139957
620 1 620 -0.00412138 0.0124733
45 1 45 -0.0106257 0.0197093
769 1 769 -0.0111861 0.0229418
91 1 91 -0.00320053 0.0166386
94 1 94 -0.00747675 0.0215759
759 1 759 -0.0122268 0.0215219
132 1 132 -0.00853857 0.0200536
151 1 151 -0.0110969 0.0245143
166 1 166 -0.00425787 0.023866
207 1 207 -0.0101718 0.0172144
212 1 212 -0.00428858 0.0214649
745 1 745 -0.00505299 0.0181665
744 1 744 -0.00506691 0.0227075
235 1 235 -0.0102883 0.0218651
270 1 270 -0.0120894 0.0200371
695 1 695 -0.00580862 0.0246034
302 1 302 -0.00140264 0.0189485
325 1 325 -0.001374 0.0216881
335 1 335 -0.00334645 0.0182128
367 1 367 -0.00546763 0.0197849
688 1 688 -0.0115107 0.0167065
385 1 385 -0.00761958 0.0248973
388 1 388 -0.00334283 0.0202558
409 1 409 -0.00301541 0.0231928
426 1 426 -0.00662398 0.0229709
430 1 430 -0.00857796 0.0176157
447 1 447 -0.00933739 0.0249004
477 1 477 -0.000813418 0.0236246
479 1 479 -0.00811126 0.0229879
663 1 663 -0.00284706 0.024695
493 1 493 -0.00985267 0.0235984
511 1 511 -0.00614928 0.0172696
639 1 639 -0.00707925 0.0198573
546 1 546 -0.00583608 0.021175
600 1 600 -0.000760297 0.0170037
49 1 49 0.00539416 -0.0223785
71 1 71 0.0121984 -0.0170677
82 1 82 0.00806691 -0.0171195
725 1 725 0.011125 -0.0231538
110 1 110 0.00436455 -0.0170329
131 1 131 0.0103992 -0.0169105
168 1 168 0.00782752 -0.0215444
180 1 180 0.0054145 -0.0185958
200 1 200 0.010096 -0.0186268
221 1 221 0.00790723 -0.0229716
256 1 256 0.00124215 -0.0214454
265 1 265 0.0037389 -0.0213645
289 1 289 0.00275414 -0.0177995
312 1 312 0.00483665 -0.0240393
357 1 357 0.0122566 -0.0242848
363 1 363 0.00961681 -0.0242654
400 1 400 0.00021352 -0.0178244
405 1 405 0.00639594 -0.0172874
407 1 407 0.00134909 -0.0238224
424 1 424 0.00990338 -0.0219516
452 1 452 0.00734645 -0.0183727
487 1 487 0.00283513 -0.0231074
500 1 500 0.00146714 -0.019269
507 1 507 0.00730655 -0.0247026
560 1 560 0.00349172 -0.0199832
571 1 571 0.0113079 -0.0198655
672 1 672 0.0117231 -0.0214298
605 1 605 0.00891471 -0.0194952
615 1 615 0.00545693 -0.0207783
636 1 636 0.00309253 -0.0248707
733 1 733 0.00474375 -0.0155506
104 1 104 0.00172343 -0.0134471
137 1 137 0.0100135 -0.0131518
158 1 158 0.00838302 -0.0148708
283 1 283 0.00194883 -0.0164394
292 1 292 0.00621811 -0.0128019
701 1 701 0.00991729 -0.0154445
349 1 349 0.00623309 -0.0154177
692 1 692 0.0116406 -0.0134163
441 1 441 0.00407631 -0.0142122
473 1 473 0.00118729 -0.0149692
481 1 481 0.0114758 -0.0152984
508 1 508 0.000282287 -0.0135312
676 1 676 0.00278306 -0.0152845
742 1 742 0.0109977 -0.0116349
28 1 28 0.00257999 -0.0107766
36 1 36 0.00720268 -0.00893598
70 1 70 0.00535993 -0.0110316
86 1 86 0.00808677 -0.0124009
109 1 109 0.00112091 -0.00883949
140 1 140 0.000156957 -0.0109243
150 1 150 0.0102447 -0.0103644
703 1 703 0.0072405 -0.0103828
315 1 315 0.0109078 -0.00858886
437 1 437 0.00859263 -0.00954714
682 1 682 0.00925407 -0.0116241
677 1 677 0.00449096 -0.00938935
623 1 623 0.00129355 -0.0120246
652 1 652 0.00315584 -0.0124691
33 1 33 0.0013511 -0.00221029
732 1 732 0.00175028 -0.00360914
74 1 74 0.0123452 -0.00367644
133 1 133 0.00438348 -0.000860018
174 1 174 0.00963546 -0.00189748
710 1 710 0.00280786 -0.00117892
206 1 206 0.00793137 -0.00746548
230 1 230 0.00349345 -0.00831262
231 1 231 0.00130595 -0.00501257
243 1 243 0.00892369 -0.0039693
259 1 259 0.00547724 -0.00379858
260 1 260 0.0104294 -0.00552323
261 1 261 0.00408955 -0.00280804
700 1 700 0.00596866 -0.0019564
332 1 332 0.00466803 -0.00571379
336 1 336 0.00706007 -0.00583289
375 1 375 0.0097058 -0.00692741
698 1 698 0.01077 -0.00393359
434 1 434 0.00293457 -0.00443738
442 1 442 0.00712009 -0.00358255
489 1 489 0.011871 -0.0064394
514 1 514 0.00584529 -0.000183985
532 1 532 0.00112921 -0.00700756
559 1 559 0.0114402 -0.00145344
566 1 566 0.00585683 -0.00825588
585 1 585 0.00817945 -0.00123596
659 1 659 0.00889458 -0.00539311
625 1 625 0.00302055 -0.00589474
55 1 55 0.00462545 0.00192844
768 1 768 0.0119827 0.00367789
66 1 66 0.0124657 0.0072123
111 1 111 0.000968871 0.00334973
114 1 114 0.00960074 0.00524917
115 1 115 0.0024851 0.000990797
152 1 152 0.00986526 0.00695275
163 1 163 0.011685 0.00218911
726 1 726 0.00366618 0.00440765
247 1 247 0.0119831 0.00520798
281 1 281 0.00510162 0.00586011
290 1 290 0.0083948 0.00289168
307 1 307 0.000948712 0.000555702
313 1 313 0.00131106 0.0048489
322 1 322 0.00717983 0.00666504
329 1 329 0.00539493 0.0042738
365 1 365 0.0101667 0.000437
372 1 372 0.000510486 0.00710439
712 1 712 0.00855242 0.00632042
378 1 378 0.0023697 0.00293357
709 1 709 0.00329485 0.00619284
427 1 427 0.0102371 0.00377698
432 1 432 0.000787761 0.0019593
444 1 444 0.0059041 0.00733133
470 1 470 0.0083339 0.000698705
472 1 472 0.00664664 0.00515946
490 1 490 0.00710322 0.00374794
517 1 517 0.0019804 0.00704399
558 1 558 0.0060817 0.00136265
660 1 660 0.00341173 0.00774301
588 1 588 0.00870797 0.0080018
653 1 653 0.0115912 0.000615325
647 1 647 0.00989115 0.00199462
119 1 119 0.00897018 0.0112414
138 1 138 0.00978335 0.00936746
175 1 175 0.0120375 0.012342
316 1 316 0.00275602 0.0115061
317 1 317 0.0065798 0.0108504
328 1 328 0.00418937 0.0110504
457 1 457 0.00196591 0.00874319
461 1 461 0.0116849 0.0107386
463 1 463 0.00751161 0.00896162
494 1 494 0.00122739 0.0110151
510 1 510 0.00493689 0.00976219
521 1 521 0.00350769 0.00959577
545 1 545 0.0114282 0.00855447
595 1 595 0.0055468 0.0121502
223 1 223 -1.13824e-05 0.00902238
48 1 48 0.0117789 0.0153361
65 1 65 0.000242428 0.0126862
75 1 75 0.010008 0.01297
178 1 178 0.00597911 0.0159457
209 1 209 0.00283298 0.01595
741 1 741 0.00266121 0.01447
718 1 718 0.011367 0.0137706
345 1 345 0.0083193 0.0148615
705 1 705 0.00732747 0.0164805
445 1 445 0.00428277 0.0140576
469 1 469 0.00941837 0.0164321
515 1 515 5.48772e-05 0.0157018
519 1 519 0.00751852 0.0128562
550 1 550 0.00451032 0.0160352
552 1 552 0.00375438 0.0127084
673 1 673 0.00607997 0.0142308
583 1 583 0.000856814 0.0143083
594 1 594 0.0100892 0.014692
603 1 603 0.00205619 0.013109
50 1 50 0.0119777 0.0189633
81 1 81 0.00768014 0.0203881
83 1 83 0.00139925 0.0175099
765 1 765 0.01129 0.0166759
763 1 763 0.00277647 0.0248569
135 1 135 0.0107003 0.0198295
167 1 167 0.0051975 0.0213539
170 1 170 0.00666357 0.0190925
197 1 197 0.00131213 0.0241566
224 1 224 0.00289454 0.0180034
264 1 264 0.00831336 0.0240958
280 1 280 0.00492069 0.0229102
716 1 716 0.0104732 0.0182759
299 1 299 0.00235769 0.0196262
300 1 300 0.00906283 0.0192674
330 1 330 0.0105692 0.0223692
386 1 386 0.00706643 0.0218501
395 1 395 9.18196e-05 0.0200926
436 1 436 0.00918467 0.0227976
460 1 460 0.000399809 0.022867
465 1 465 0.00248913 0.0221871
699 1 699 0.00686707 0.0234038
471 1 471 0.00411483 0.0191135
474 1 474 0.0118239 0.0245179
495 1 495 0.00418116 0.0243874
693 1 693 0.000750649 0.0188371
554 1 554 0.012443 0.0175687
556 1 556 0.00569123 0.0246209
565 1 565 0.00509495 0.0180729
575 1 575 0.00775419 0.017943
593 1 593 0.0121309 0.0223141
650 1 650 0.00982017 0.0210856
642 1 642 0.00380683 0.020732
643 1 643 0.0098205 0.0241687
9 1 9 0.0224428 -0.0220559
23 1 23 0.0198342 -0.0170808
41 1 41 0.0157332 -0.024872
68 1 68 0.021106 -0.0230276
103 1 103 0.0150433 -0.0199241
177 1 177 0.0154758 -0.0179506
227 1 227 0.0240822 -0.0173401
272 1 272 0.0165525 -0.0200689
274 1 274 0.022048 -0.0192412
321 1 321 0.023963 -0.0223817
323 1 323 0.022794 -0.0179314
359 1 359 0.0195114 -0.0208955
361 1 361 0.0158235 -0.0226226
370 1 370 0.0200481 -0.0186454
428 1 428 0.0191226 -0.0226469
454 1 454 0.0212101 -0.0213756
455 1 455 0.0176944 -0.0189254
535 1 535 0.024208 -0.0189533
582 1 582 0.017147 -0.0217889
601 1 601 0.0233449 -0.0236587
611 1 611 0.0179989 -0.0235917
618 1 618 0.0247507 -0.0209679
627 1 627 0.0206815 -0.0200412
657 1 657 0.019665 -0.0239436
658 1 658 0.0225894 -0.0206197
671 1 671 0.0162006 -0.0166945
702 1 702 0.0245928 -0.0243152
724 1 724 0.0213252 -0.0249642
728 1 728 0.017135 -0.0249887
730 1 730 0.0212059 -0.0178153
764 1 764 0.0180654 -0.020573
25 1 25 0.0139599 -0.0172615
186 1 186 0.0127948 -0.0229211
304 1 304 0.014141 -0.0245401
419 1 419 0.0134399 -0.0207463
520 1 520 0.0142595 -0.0226901
579 1 579 0.012652 -0.0184449
53 1 53 0.0181502 -0.0163463
84 1 84 0.0196269 -0.0137671
201 1 201 0.0172543 -0.013718
285 1 285 0.0230505 -0.0148185
352 1 352 0.0214756 -0.0158827
413 1 413 0.0217762 -0.0138683
421 1 421 0.0245936 -0.0138036
464 1 464 0.0167517 -0.0152897
564 1 564 0.0154433 -0.0136963
656 1 656 0.0200496 -0.0154973
752 1 752 0.0247809 -0.0157111
320 1 320 0.0140346 -0.0143793
669 1 669 0.0146629 -0.0156709
78 1 78 0.0207568 -0.00970225
125 1 125 0.0176136 -0.0119255
146 1 146 0.0229745 -0.0098815
249 1 249 0.0244411 -0.00853993
277 1 277 0.0156011 -0.0120994
356 1 356 0.0160239 -0.00953338
499 1 499 0.0204863 -0.0123723
502 1 502 0.0249553 -0.0111155
529 1 529 0.0234157 -0.0118088
533 1 533 0.0187594 -0.0092853
544 1 544 0.021829 -0.00848356
648 1 648 0.0191754 -0.011676
717 1 717 0.0216688 -0.0112461
27 1 27 0.0144873 -0.0100775
253 1 253 0.0131567 -0.012276
448 1 448 0.0128156 -0.0107048
4 1 4 0.0175464 -0.00655456
14 1 14 0.0178292 -0.00128262
19 1 19 0.0180212 -0.00807082
56 1 56 0.0220783 -0.00237201
76 1 76 0.023249 -0.00338907
100 1 100 0.0216475 -0.00423496
112 1 112 0.0205614 -0.00601203
148 1 148 0.0168171 -0.00523467
195 1 195 0.0216953 -2.73973e-05
258 1 258 0.0204508 -0.00190606
273 1 273 0.0150849 -0.0018027
310 1 310 0.018854 -0.00372531
384 1 384 0.0243792 -0.00505844
387 1 387 0.019035 -0.00581663
392 1 392 0.0235049 -0.0073178
438 1 438 0.0204902 -0.00766173
450 1 450 0.0248816 -0.000362234
476 1 476 0.0231214 -0.00594873
526 1 526 0.0238731 -0.00135031
530 1 530 0.0247651 -0.00643075
563 1 563 0.0153262 -0.00824583
624 1 624 0.0164157 -0.00348255
631 1 631 0.0164302 -0.00138792
715 1 715 0.024782 -0.00272357
721 1 721 0.0157225 -0.00664981
38 1 38 0.0128466 -0.00794118
88 1 88 0.0147904 -0.00553406
399 1 399 0.0136856 -0.00108515
537 1 537 0.0139091 -0.00282054
591 1 591 0.0139099 -0.00684985
666 1 666 0.0146956 -0.00397936
661 1 661 0.013056 -0.00545841
2 1 2 0.0227134 0.00349464
16 1 16 0.0167092 0.000761513
26 1 26 0.0181197 0.00381809
64 1 64 0.0181029 0.000254145
127 1 127 0.0201428 0.00682399
196 1 196 0.0237558 0.00748727
262 1 262 0.0247991 0.00360083
295 1 295 0.0150621 0.00371167
301 1 301 0.02188 0.00795867
337 1 337 0.0228853 0.00154021
397 1 397 0.0201232 0.000404907
415 1 415 0.018426 0.00670335
418 1 418 0.0226512 0.00638284
439 1 439 0.0164185 0.00321965
459 1 459 0.015225 0.000651504
475 1 475 0.0211081 0.00164914
486 1 486 0.0200416 0.00451774
492 1 492 0.0203012 0.00303295
497 1 497 0.0162307 0.00742905
528 1 528 0.0161892 0.00597974
576 1 576 0.0246828 0.00193005
599 1 599 0.017613 0.00245481
602 1 602 0.0175029 0.00516873
655 1 655 0.0233256 0.0049201
689 1 689 0.0217637 0.00524853
711 1 711 0.024923 0.00650439
713 1 713 0.0154355 0.00221232
737 1 737 0.0190769 0.0017499
58 1 58 0.0137806 0.000863667
101 1 101 0.014272 0.00587739
417 1 417 0.0145899 0.0074331
570 1 570 0.013392 0.00451082
586 1 586 0.013809 0.0029903
77 1 77 0.0160823 0.0108557
95 1 95 0.0198522 0.00856031
121 1 121 0.020029 0.0104956
216 1 216 0.0153447 0.00954451
288 1 288 0.0224734 0.0124157
311 1 311 0.0207538 0.0120942
381 1 381 0.0172141 0.0100212
396 1 396 0.0242511 0.0104577
440 1 440 0.0225985 0.0103298
525 1 525 0.0244609 0.00891301
640 1 640 0.0248453 0.0117773
675 1 675 0.018286 0.00880634
707 1 707 0.021188 0.00929197
722 1 722 0.0188895 0.0115729
245 1 245 0.0133954 0.00991916
697 1 697 0.0136142 0.0120429
629 1 629 0.0146206 0.0110435
3 1 3 0.023925 0.0129031
6 1 6 0.0215031 0.0136701
122 1 122 0.0152321 0.0161107
220 1 220 0.0166305 0.0150165
228 1 228 0.0172232 0.0128218
282 1 282 0.0210019 0.0158352
298 1 298 0.0227848 0.0156793
324 1 324 0.0245968 0.0149077
456 1 456 0.0180285 0.0159599
516 1 516 0.0196549 0.0136498
719 1 719 0.0196676 0.0151604
758 1 758 0.0245643 0.0165132
92 1 92 0.013322 0.0150608
217 1 217 0.0148766 0.012783
379 1 379 0.0132337 0.0134428
467 1 467 0.0136075 0.0165807
15 1 15 0.0156903 0.0180442
24 1 24 0.0157479 0.0228758
39 1 39 0.0246339 0.0195383
59 1 59 0.0186667 0.0206272
72 1 72 0.0217619 0.0179589
73 1 73 0.0181313 0.0239149
118 1 118 0.015863 0.0248013
143 1 143 0.0204038 0.0200978
173 1 173 0.0226497 0.0248066
199 1 199 0.0224897 0.020616
240 1 240 0.0199626 0.0215252
371 1 371 0.0231433 0.0232883
382 1 382 0.0171729 0.0187039
398 1 398 0.0232262 0.0176181
402 1 402 0.0228476 0.0190702
414 1 414 0.0241821 0.0249009
443 1 443 0.0245688 0.0230354
446 1 446 0.0158844 0.02035
449 1 449 0.0212238 0.0244299
466 1 466 0.0180818 0.0225071
567 1 567 0.0193557 0.0231662
573 1 573 0.0198867 0.0185579
590 1 590 0.0169533 0.0215718
596 1 596 0.0239014 0.0210341
670 1 670 0.0184621 0.0177263
696 1 696 0.0217479 0.0222064
727 1 727 0.0192636 0.0249541
269 1 269 0.0134191 0.0235259
297 1 297 0.0139771 0.02216
377 1 377 0.0125972 0.0208986
547 1 547 0.0145346 0.0190762
632 1 632 0.0139789 0.020459
ITEM: TIMESTEP
5000
ITEM: NUMBER OF ATOMS
769
ITEM: BOX BOUNDS ss ss pp
-3.0304814519301313e-02 2.9968792127578386e-02
-2.4993700000000001e-02 2.4959100000000001e-02
-2.5000000000000001e-03 2.5000000000000001e-03
ITEM: ATOMS id type mol x y
46 1 46 -0.0234763 -0.0182698
54 1 54 -0.0195724 -0.0170392
248 1 248 -0.0207001 -0.000709616
87 1 87 -0.0190596 -0.024027
159 1 159 -0.0191955 -0.0221233
172 1 172 -0.0157059 -0.0211522
183 1 183 -0.0231203 -0.0217746
205 1 205 -0.0218911 -0.0249238
210 1 210 -0.0208757 -0.0185635
222 1 222 -0.02424 -0.020225
251 1 251 -0.0175437 -0.0241045
296 1 296 -0.0223795 -0.0234007
340 1 340 -0.0239755 -0.0242475
406 1 406 -0.019714 -0.0201786
408 1 408 -0.0205642 -0.0235233
483 1 483 -0.0212126 -0.0215174
504 1 504 -0.0262694 -0.0207781
609 1 609 -0.0178662 -0.0180426
645 1 645 -0.0162088 -0.0231948
651 1 651 -0.0221798 -0.0199064
654 1 654 -0.025426 -0.018819
662 1 662 -0.0250528 -0.0224903
720 1 720 -0.0174591 -0.021872
736 1 736 -0.0272889 -0.0189872
766 1 766 -0.0179454 -0.0198473
739 1 739 -0.0241138 -0.00300387
762 1 762 -0.016005 -0.0190761
649 1 649 -0.0282825 -0.00823497
318 1 318 -0.0151597 -0.000196958
284 1 284 -0.0143479 -0.0123364
589 1 589 -0.0205027 -0.00495175
106 1 106 -0.016367 -0.0128057
117 1 117 -0.0177762 -0.0159445
182 1 182 -0.0232519 -0.0146144
306 1 306 -0.0263629 -0.0170913
374 1 374 -0.0259064 -0.0150469
404 1 404 -0.021172 -0.0148983
435 1 435 -0.0201947 -0.0131306
478 1 478 -0.0276566 -0.0139556
524 1 524 -0.0160377 -0.014878
562 1 562 -0.0223312 -0.0165241
597 1 597 -0.0182417 -0.0135773
686 1 686 -0.0243981 -0.0163695
723 1 723 -0.0193086 -0.015023
760 1 760 -0.0161556 -0.0169737
581 1 581 -0.0190815 -0.00187076
128 1 128 -0.0157569 -0.00204263
126 1 126 -0.0165367 -0.00726028
31 1 31 -0.0270255 -0.00987521
40 1 40 -0.0252545 -0.013053
42 1 42 -0.0234712 -0.011941
97 1 97 -0.0198785 -0.0113513
219 1 219 -0.0234834 -0.00974688
287 1 287 -0.0215761 -0.00884553
341 1 341 -0.0252188 -0.0109419
422 1 422 -0.0175085 -0.00960369
522 1 522 -0.0179258 -0.0115108
607 1 607 -0.0217256 -0.0108632
612 1 612 -0.0219704 -0.0129582
683 1 683 -0.0270581 -0.0119563
755 1 755 -0.0196093 -0.00954652
90 1 90 -0.0172318 -0.000991537
729 1 729 -0.0158235 -0.0108919
616 1 616 -0.0155676 -0.00882536
60 1 60 -0.0170104 -0.00522193
116 1 116 -0.0233156 -0.00763209
130 1 130 -0.0186711 -0.00392958
157 1 157 -0.0257152 -0.0039883
162 1 162 -0.0277435 -0.00411427
204 1 204 -0.022097 -0.00595952
238 1 238 -0.0185664 -0.00778225
429 1 429 -0.0144077 -0.0162403
252 1 252 -0.0261868 -0.00793525
278 1 278 -0.0281085 -0.00614848
346 1 346 -0.0170631 -0.00312499
347 1 347 -0.0223861 -0.00402908
351 1 351 -0.0240573 -0.00526998
366 1 366 -0.0205995 -0.00309072
383 1 383 -0.0262348 -0.00197338
750 1 750 -0.0189575 -0.00592579
431 1 431 -0.0260653 -0.00589059
433 1 433 -0.0242197 -0.00100781
451 1 451 -0.0205656 -0.00715792
480 1 480 -0.028846 -0.00232283
539 1 539 -0.022322 -0.0019121
276 1 276 -0.0279179 -0.000448006
549 1 549 -0.0135784 -0.00753869
353 1 353 -0.0151402 -0.0039742
279 1 279 -0.0140863 -0.00999724
641 1 641 -0.0149239 -0.0059338
51 1 51 -0.0277256 0.00347538
57 1 57 -0.0258331 0.00408255
80 1 80 -0.0180927 0.0042455
98 1 98 -0.0261788 0.00599694
107 1 107 -0.0225254 0.00218969
123 1 123 -0.0172118 0.0059872
136 1 136 -0.025216 0.00208845
165 1 165 -0.018332 0.00218886
187 1 187 -0.0226615 0.00817193
190 1 190 -0.0225097 0.000176248
62 1 62 -0.0154844 0.00477052
275 1 275 -0.0207032 0.00738331
731 1 731 -0.0269704 0.0171522
350 1 350 -0.0217542 0.0041053
358 1 358 -0.0222881 0.00611497
389 1 389 -0.0292467 0.00152808
518 1 518 -0.0197989 0.00549355
527 1 527 -0.028049 0.00549826
555 1 555 -0.0266523 0.00799147
580 1 580 -0.0187108 0.00738925
606 1 606 -0.0199967 0.00340502
614 1 614 -0.0237963 0.00361875
621 1 621 -0.0242402 0.00545582
665 1 665 -0.0205805 0.00139918
667 1 667 -0.027215 0.00152101
734 1 734 -0.0246026 0.00739736
757 1 757 -0.0286802 0.00748536
394 1 394 -0.0188483 0.000223417
225 1 225 -0.0168807 0.000967036
484 1 484 -0.0169049 0.00805791
668 1 668 -0.0152865 0.0181614
608 1 608 -0.0150175 0.00172209
740 1 740 -0.0166274 0.0225509
626 1 626 -0.0163975 0.00301999
10 1 10 -0.020119 0.0110786
169 1 169 -0.0181862 0.0114998
236 1 236 -0.0259457 0.0113352
267 1 267 -0.0187747 0.00947969
268 1 268 -0.0293955 0.00927667
364 1 364 -0.0249536 0.00945769
416 1 416 -0.0274492 0.0126235
523 1 523 -0.0228187 0.0101405
534 1 534 -0.0241317 0.0117281
553 1 553 -0.0208837 0.00929974
684 1 684 -0.0273913 0.00984655
753 1 753 -0.0219554 0.0115905
754 1 754 -0.028878 0.0113034
735 1 735 -0.025842 0.0231245
453 1 453 -0.0167314 0.00999377
7 1 7 -0.0240065 0.0146651
124 1 124 -0.0197561 0.0147921
179 1 179 -0.0255556 0.0158049
188 1 188 -0.0254815 0.0133517
213 1 213 -0.0229306 0.0131058
401 1 401 -0.018088 0.0135934
501 1 501 -0.0208323 0.0130557
557 1 557 -0.0270851 0.0146742
574 1 574 -0.0218482 0.0148908
587 1 587 -0.0236552 0.0165514
613 1 613 -0.0173273 0.0156998
113 1 113 -0.0147619 0.0161367
271 1 271 -0.0158387 0.0143108
423 1 423 -0.0146017 0.0125971
485 1 485 -0.0163886 0.0123626
18 1 18 -0.0266181 0.0192213
22 1 22 -0.0177067 0.019868
93 1 93 -0.0203647 0.0218502
102 1 102 -0.0212231 0.0168487
108 1 108 -0.0230368 0.0184189
149 1 149 -0.0240516 0.0218318
154 1 154 -0.0238862 0.023831
156 1 156 -0.0191906 0.016541
184 1 184 -0.0173232 0.0178036
239 1 239 -0.0211395 0.0188387
244 1 244 -0.022027 0.022488
291 1 291 -0.0250638 0.0178494
319 1 319 -0.0207272 0.023656
327 1 327 -0.0159376 0.0200023
342 1 342 -0.0167924 0.0240444
598 1 598 -0.0152777 0.00675902
411 1 411 -0.0184295 0.0218404
468 1 468 -0.0190123 0.0236146