LAMMPS (27 Jun 2024)
OMP_NUM_THREADS environment is not set. Defaulting to 1 thread. (src/comm.cpp:98)
  using 1 OpenMP thread(s) per MPI task
### Some general info
units           si
dimension       2
boundary        s s p

#---------------------------------------------------------------------
# Specify atoms and bond attributes (tells lammps what to store)
#---------------------------------------------------------------------
atom_style      bpm/sphere
special_bonds 	lj 1 1 1 coul 1 1 1
newton          on off

#---------------------------------------------------------------------
# Read in data from .dat file
#---------------------------------------------------------------------
read_data       CatchAtoms_small.dat extra/bond/per/atom 6 extra/special/per/atom 100  #$# USER INPUT (name of .dat folder)
Reading data file ...
  orthogonal box = (-0.03 -0.025 -0.0025) to (0.03 0.025 0.0025)
  4 by 2 by 1 MPI processor grid
  reading atoms ...
  769 atoms
Finding 1-2 1-3 1-4 neighbors ...
  special bond factors lj:    1        1        1       
  special bond factors coul:  1        1        1       
     0 = max # of 1-2 neighbors
   101 = max # of special neighbors
  special bonds CPU = 0.000 seconds
  read_data CPU = 0.007 seconds

#---------------------------------------------------------------------
# Simulation parameters
#---------------------------------------------------------------------
variable        chi equal 0.005         # Damping multiplier
variable        alpha equal 0.1         # Timestep multiplier

variable        xi equal 0.0014         # Mesh size (m)   #$# USER INPUT Must match output from the builder

#---------------------------------------------------------------------
# Communication lengthscales
#---------------------------------------------------------------------
variable        ell equal $(v_xi*1.5)   #
variable        ell equal 0.0020999999999999998702   
variable        Lmax equal $(v_xi*2.0)	# Maximum dynamic bond formation length
variable        Lmax equal 0.0027999999999999999716	

#---------------------------------------------------------------------
# Parameter sweep
#---------------------------------------------------------------------

# Efficiency of the catch bond
variable        catch_eff equal 1.0       #$# USER INPUT

# Weissenberg number
variable        Wi equal 10              #$# USER INPUT

#---------------------------------------------------------------------
# Bond Parameters
#---------------------------------------------------------------------

# Energy scale governing bond stiffness
variable        Energy equal 1.0533e-06

# Length at which bond force diverges
variable        Lcrit equal $(1.90*v_Lmax)
variable        Lcrit equal 0.0053200000000000000761

# Length at which bond force reaches 200 dynes (and breaks)
variable        Lfc equal 0.004125404

variable        fc equal 0.002                      # Critical force at which bonds break
variable        Kmax equal 3.487                    # Stiffness at bond failure   #$# USER INPUT Must match output from the builder

#---------------------------------------------------------------------
# Pairwise Potential Parameters
#---------------------------------------------------------------------

variable        rscreen equal $(0.1818*v_ell)       # Screening length (governs pairwise decay lengthscale)
variable        rscreen equal 0.00038177999999999996661       
variable        Apair equal $(v_Energy/15)          # Energy scale for pairwise forces
variable        Apair equal 7.0219999999999989538e-08          
variable	    cutoff_rep equal ${ell}	            # Length at which repulsion force is zero & no longer checked
variable	    cutoff_rep equal 0.0021	            

#---------------------------------------------------------------------
# Bond kinetic parameters
#---------------------------------------------------------------------

# Experimentally measured kinetic rates in units of [1/s]
variable        ka0 equal 0.0848
variable        kd0 equal 0.0074

variable        tauh equal $(1/(v_ka0+v_kd0))
variable        tauh equal 10.845986984815617404

# Transition state distance (for both slip and catch pathways)
variable        f0 equal 0.0004                     #$# USER INPUT

variable        B equal $((2.0*v_catch_eff^2)+2*sqrt(v_catch_eff^4-v_catch_eff^2)-1)
variable        B equal 1
variable        kd_bar equal $(v_kd0/(v_B+1))
variable        kd_bar equal 0.0037000000000000001638

#---------------------------------------------------------------------
# Define bond properties (nonlinear springs)
#---------------------------------------------------------------------
variable	    R equal 0
bond_style      nonlinear
bond_coeff      1 ${Energy} ${R} ${Lcrit}
bond_coeff      1 1.0533e-06 ${R} ${Lcrit}
bond_coeff      1 1.0533e-06 0 ${Lcrit}
bond_coeff      1 1.0533e-06 0 0.00532

#---------------------------------------------------------------------
# Define pairwise repulsion
#---------------------------------------------------------------------
variable	    kappa equal $(1.0/v_rscreen)
variable	    kappa equal 2619.3095500026192894
pair_style      hybrid/overlay yukawa ${kappa} ${cutoff_rep} zero $(v_Lcrit*2.5)
pair_style      hybrid/overlay yukawa 2619.30955000262 ${cutoff_rep} zero $(v_Lcrit*2.5)
pair_style      hybrid/overlay yukawa 2619.30955000262 0.0021 zero $(v_Lcrit*2.5)
pair_style      hybrid/overlay yukawa 2619.30955000262 0.0021 zero 0.013299999999999999323
pair_coeff      * * yukawa $(v_Apair) ${cutoff_rep}
pair_coeff      * * yukawa 7.0220000000000002773e-08 ${cutoff_rep}
pair_coeff      * * yukawa 7.0220000000000002773e-08 0.0021
pair_coeff      * * zero $(v_Lcrit*2.5)  # Added pairwise cutoff distance for communication
pair_coeff      * * zero 0.013299999999999999323  

####################################
#### Derived Simulation Parameters
####################################
# Calculate minimum mass
compute         getmass all property/atom mass
compute         minmass all reduce min c_getmass

run             0

CITE-CITE-CITE-CITE-CITE-CITE-CITE-CITE-CITE-CITE-CITE-CITE-CITE

Your simulation uses code contributions which should be cited:

- Type Label Framework: https://doi.org/10.1021/acs.jpcb.3c08419

@Article{Gissinger24,
 author = {Jacob R. Gissinger, Ilia Nikiforov, Yaser Afshar, Brendon Waters, Moon-ki Choi, Daniel S. Karls, Alexander Stukowski, Wonpil Im, Hendrik Heinz, Axel Kohlmeyer, and Ellad B. Tadmor},
 title = {Type Label Framework for Bonded Force Fields in LAMMPS},
 journal = {J. Phys. Chem. B},
 year =    2024,
 volume =  128,
 number =  13,
 pages =   {3282–-3297}
}

CITE-CITE-CITE-CITE-CITE-CITE-CITE-CITE-CITE-CITE-CITE-CITE-CITE

WARNING: No fixes with time integration, atoms won't move (src/verlet.cpp:60)
Generated 0 of 0 mixed pair_coeff terms from geometric mixing rule
Neighbor list info ...
  update: every = 1 steps, delay = 0 steps, check = yes
  max neighbors/atom: 2000, page size: 100000
  master list distance cutoff = 0.0143
  ghost atom cutoff = 0.0143
  binsize = 0.00715, bins = 7 7 1
  2 neighbor lists, perpetual/occasional/extra = 2 0 0
  (1) pair yukawa, perpetual, trim from (2)
      attributes: half, newton on, cut 0.0031
      pair build: trim
      stencil: none
      bin: none
  (2) pair zero, perpetual
      attributes: half, newton on
      pair build: half/bin/newton
      stencil: half/bin/2d
      bin: standard
Per MPI rank memory allocation (min/avg/max) = 13.45 | 13.46 | 13.47 Mbytes
   Step          Temp          E_pair         E_mol          TotEng         Press          Volume    
         0   0              0.00070103961  0              0.00070103961  0.73094221     0.0024958017 
Loop time of 4.4125e-06 on 8 procs for 0 steps with 769 atoms

85.0% CPU use with 8 MPI tasks x 1 OpenMP threads

MPI task timing breakdown:
Section |  min time  |  avg time  |  max time  |%varavg| %total
---------------------------------------------------------------
Pair    | 0          | 0          | 0          |   0.0 |  0.00
Bond    | 0          | 0          | 0          |   0.0 |  0.00
Neigh   | 0          | 0          | 0          |   0.0 |  0.00
Comm    | 0          | 0          | 0          |   0.0 |  0.00
Output  | 0          | 0          | 0          |   0.0 |  0.00
Modify  | 0          | 0          | 0          |   0.0 |  0.00
Other   |            | 4.413e-06  |            |       |100.00

Nlocal:         96.125 ave         101 max          87 min
Histogram: 1 0 1 0 0 0 1 3 0 2
Nghost:        297.875 ave         381 max         221 min
Histogram: 4 0 0 0 0 0 0 0 0 4
Neighs:        365.875 ave         415 max         310 min
Histogram: 1 0 0 1 1 2 2 0 0 1

Total # of neighbors = 2927
Ave neighs/atom = 3.8062419
Ave special neighs/atom = 0
Neighbor list builds = 0
Dangerous builds = 0
reset_timestep  0 time 0

# Calculate timestep
variable        dt equal $(v_alpha*sqrt(c_minmass/v_Kmax))
variable        dt equal 0.00067563187300704512315

#---------------------------------------------------------------------
# Loading parameters
#---------------------------------------------------------------------
variable        erate equal $(v_Wi*v_kd0)           #Engineering strain rate
variable        erate equal 0.074000000000000010214           
variable        lammax equal 4                    #desired stretch #$# USER INPUT

variable        H0 equal $(yhi-ylo)                 #inital height
variable        H0 equal 0.049952800000000005531                 
variable        H equal yhi-ylo
variable        Hf equal $(v_H0*v_lammax)           #final height
variable        Hf equal 0.19981119999999999437           

variable        Nrun equal $(ceil((v_lammax-1)/v_erate/v_dt))
variable        Nrun equal 60004
variable        nout equal $(ceil(v_Nrun/200))
variable        nout equal 301
variable        nthermo equal $(ceil(v_nout/10))
variable        nthermo equal 31

#############################################
##### Initialize particles and bond topology
#############################################

# for inter-processor communication
neighbor        $(2.5*v_ell) bin
neighbor        0.0052499999999999994588 bin
neigh_modify    page 1000000 one 100000 #exclude molecule/intra all

#---------------------------------------------------------------------
# Setup computes
#---------------------------------------------------------------------

# Compute bond informations
compute         1 all property/local btype batom1 batom2
compute         2 all bond/local dist force engpot
compute         4 all reduce max c_2[1] inputs local
compute         5 all reduce sum c_1[1] inputs local
variable        Bmax equal c_4
variable        vbonds equal c_5

#---------------------------------------------------------------------
# Setup thermos
#---------------------------------------------------------------------

# Outputs in command window
thermo_style    custom step atoms v_vbonds ebond epair
thermo          $(v_nthermo)
thermo          31
thermo_modify	flush yes lost warn lost/bond warn

#---------------------------------------------------------------------
# Initialize topology
#---------------------------------------------------------------------

# Initialize bond topology at experimentally-measured rates for proper initial conditions
timestep        $(v_dt)
timestep        0.00067563187300704501473
fix             dynamics all bond/dynamic 1 1 1 $(100*v_ka0) ${kd0} ${Lmax} maxbond 6
fix             dynamics all bond/dynamic 1 1 1 8.4800000000000004263 ${kd0} ${Lmax} maxbond 6
fix             dynamics all bond/dynamic 1 1 1 8.4800000000000004263 0.0074 ${Lmax} maxbond 6
fix             dynamics all bond/dynamic 1 1 1 8.4800000000000004263 0.0074 0.0028 maxbond 6
run             5000
WARNING: No fixes with time integration, atoms won't move (src/verlet.cpp:60)
Generated 0 of 0 mixed pair_coeff terms from geometric mixing rule
Neighbor list info ...
  update: every = 1 steps, delay = 0 steps, check = yes
  max neighbors/atom: 100000, page size: 1000000
  master list distance cutoff = 0.01855
  ghost atom cutoff = 0.01855
  binsize = 0.009275, bins = 6 6 1
  3 neighbor lists, perpetual/occasional/extra = 2 1 0
  (1) pair yukawa, perpetual, trim from (2)
      attributes: half, newton on, cut 0.007349999999999999
      pair build: trim
      stencil: none
      bin: none
  (2) pair zero, perpetual
      attributes: half, newton on
      pair build: half/bin/newton
      stencil: half/bin/2d
      bin: standard
  (3) fix bond/dynamic, occasional, copy from (2)
      attributes: half, newton on
      pair build: copy
      stencil: none
      bin: none
Per MPI rank memory allocation (min/avg/max) = 22.01 | 22.09 | 22.17 Mbytes
   Step        Atoms       v_vbonds        E_bond         E_pair    
         0         769   0              0              0.00070103961
        31         769   370            7.3489245e-05  0.00070103961
        62         769   692            0.00014101057  0.00070103961
        93         769   981            0.00019899665  0.00070103961
       124         769   1184           0.00023879669  0.00070103961
       155         769   1360           0.00027299408  0.00070103961
       186         769   1507           0.0003027602   0.00070103961
       217         769   1620           0.00032383466  0.00070103961
       248         769   1714           0.00034249047  0.00070103961
       279         769   1782           0.00035639315  0.00070103961
       310         769   1835           0.0003681963   0.00070103961
       341         769   1880           0.00037586395  0.00070103961
       372         769   1917           0.00038265172  0.00070103961
       403         769   1938           0.00038626934  0.00070103961
       434         769   1963           0.00039101127  0.00070103961
       465         769   1984           0.00039465615  0.00070103961
       496         769   1999           0.00039800544  0.00070103961
       527         769   2011           0.00040008783  0.00070103961
       558         769   2017           0.00040124976  0.00070103961
       589         769   2024           0.00040242604  0.00070103961
       620         769   2030           0.00040354976  0.00070103961
       651         769   2036           0.00040531673  0.00070103961
       682         769   2043           0.00040664046  0.00070103961
       713         769   2045           0.0004070325   0.00070103961
       744         769   2050           0.00040833555  0.00070103961
       775         769   2054           0.00040910056  0.00070103961
       806         769   2055           0.00040908938  0.00070103961
       837         769   2055           0.0004091007   0.00070103961
       868         769   2057           0.00040929045  0.00070103961
       899         769   2060           0.00040991794  0.00070103961
       930         769   2060           0.00040991794  0.00070103961
       961         769   2061           0.00041013514  0.00070103961
       992         769   2061           0.00041013514  0.00070103961
      1023         769   2060           0.00040993631  0.00070103961
      1054         769   2061           0.00041005086  0.00070103961
      1085         769   2061           0.00041005086  0.00070103961
      1116         769   2061           0.00041005086  0.00070103961
      1147         769   2062           0.00041040512  0.00070103961
      1178         769   2061           0.00040996837  0.00070103961
      1209         769   2063           0.00041047349  0.00070103961
      1240         769   2063           0.00041047349  0.00070103961
      1271         769   2064           0.00041055341  0.00070103961
      1302         769   2066           0.00041105146  0.00070103961
      1333         769   2068           0.00041149738  0.00070103961
      1364         769   2068           0.00041149738  0.00070103961
      1395         769   2068           0.00041149738  0.00070103961
      1426         769   2067           0.00041141211  0.00070103961
      1457         769   2066           0.00041131565  0.00070103961
      1488         769   2066           0.00041101755  0.00070103961
      1519         769   2066           0.00041108273  0.00070103961
      1550         769   2066           0.00041108273  0.00070103961
      1581         769   2067           0.00041116124  0.00070103961
      1612         769   2066           0.00041096869  0.00070103961
      1643         769   2067           0.00041116124  0.00070103961
      1674         769   2066           0.00041093386  0.00070103961
      1705         769   2066           0.00041073964  0.00070103961
      1736         769   2066           0.00041073964  0.00070103961
      1767         769   2066           0.00041073964  0.00070103961
      1798         769   2066           0.00041073964  0.00070103961
      1829         769   2065           0.0004104116   0.00070103961
      1860         769   2064           0.00041028267  0.00070103961
      1891         769   2066           0.00041075969  0.00070103961
      1922         769   2065           0.00041064653  0.00070103961
      1953         769   2066           0.00041097457  0.00070103961
      1984         769   2066           0.00041097457  0.00070103961
      2015         769   2066           0.0004108093   0.00070103961
      2046         769   2067           0.00041108773  0.00070103961
      2077         769   2066           0.0004107336   0.00070103961
      2108         769   2067           0.00041108773  0.00070103961
      2139         769   2066           0.00041088817  0.00070103961
      2170         769   2066           0.00041088817  0.00070103961
      2201         769   2067           0.00041108773  0.00070103961
      2232         769   2067           0.00041108773  0.00070103961
      2263         769   2067           0.00041108773  0.00070103961
      2294         769   2066           0.00041098507  0.00070103961
      2325         769   2066           0.00041098507  0.00070103961
      2356         769   2067           0.00041107034  0.00070103961
      2387         769   2067           0.00041107034  0.00070103961
      2418         769   2066           0.00041096567  0.00070103961
      2449         769   2066           0.00041096567  0.00070103961
      2480         769   2066           0.00041081651  0.00070103961
      2511         769   2066           0.00041081651  0.00070103961
      2542         769   2067           0.00041107034  0.00070103961
      2573         769   2067           0.00041107034  0.00070103961
      2604         769   2066           0.00041073279  0.00070103961
      2635         769   2066           0.00041073279  0.00070103961
      2666         769   2066           0.00041073279  0.00070103961
      2697         769   2066           0.00041073279  0.00070103961
      2728         769   2066           0.00041073279  0.00070103961
      2759         769   2066           0.00041073279  0.00070103961
      2790         769   2066           0.00041073279  0.00070103961
      2821         769   2066           0.00041073279  0.00070103961
      2852         769   2067           0.00041110083  0.00070103961
      2883         769   2066           0.00041095408  0.00070103961
      2914         769   2067           0.00041138599  0.00070103961
      2945         769   2068           0.00041148865  0.00070103961
      2976         769   2068           0.00041148865  0.00070103961
      3007         769   2068           0.00041148865  0.00070103961
      3038         769   2068           0.00041148865  0.00070103961
      3069         769   2069           0.00041157524  0.00070103961
      3100         769   2068           0.00041144165  0.00070103961
      3131         769   2067           0.00041133623  0.00070103961
      3162         769   2068           0.00041153399  0.00070103961
      3193         769   2068           0.00041153399  0.00070103961
      3224         769   2069           0.00041167125  0.00070103961
      3255         769   2070           0.00041177668  0.00070103961
      3286         769   2070           0.00041177668  0.00070103961
      3317         769   2069           0.00041167815  0.00070103961
      3348         769   2068           0.00041154953  0.00070103961
      3379         769   2069           0.00041164869  0.00070103961
      3410         769   2070           0.00041174722  0.00070103961
      3441         769   2071           0.00041214178  0.00070103961
      3472         769   2071           0.00041214178  0.00070103961
      3503         769   2071           0.00041214178  0.00070103961
      3534         769   2071           0.00041214178  0.00070103961
      3565         769   2070           0.00041180853  0.00070103961
      3596         769   2071           0.00041214178  0.00070103961
      3627         769   2070           0.00041188333  0.00070103961
      3658         769   2070           0.00041212352  0.00070103961
      3689         769   2071           0.00041228356  0.00070103961
      3720         769   2071           0.00041228356  0.00070103961
      3751         769   2071           0.00041220827  0.00070103961
      3782         769   2070           0.00041212027  0.00070103961
      3813         769   2069           0.00041203444  0.00070103961
      3844         769   2069           0.00041203444  0.00070103961
      3875         769   2069           0.00041203444  0.00070103961
      3906         769   2069           0.00041188431  0.00070103961
      3937         769   2069           0.00041188431  0.00070103961
      3968         769   2070           0.00041204033  0.00070103961
      3999         769   2070           0.00041194226  0.00070103961
      4030         769   2070           0.00041194226  0.00070103961
      4061         769   2069           0.00041183911  0.00070103961
      4092         769   2069           0.00041202403  0.00070103961
      4123         769   2070           0.00041215761  0.00070103961
      4154         769   2071           0.0004122638   0.00070103961
      4185         769   2071           0.0004122638   0.00070103961
      4216         769   2071           0.0004122638   0.00070103961
      4247         769   2072           0.00041244769  0.00070103961
      4278         769   2072           0.00041244769  0.00070103961
      4309         769   2072           0.00041244769  0.00070103961
      4340         769   2072           0.00041244769  0.00070103961
      4371         769   2071           0.00041235007  0.00070103961
      4402         769   2071           0.00041235007  0.00070103961
      4433         769   2072           0.00041244769  0.00070103961
      4464         769   2072           0.00041244769  0.00070103961
      4495         769   2072           0.00041244769  0.00070103961
      4526         769   2072           0.00041244769  0.00070103961
      4557         769   2072           0.00041244769  0.00070103961
      4588         769   2072           0.00041244769  0.00070103961
      4619         769   2072           0.00041244769  0.00070103961
      4650         769   2072           0.00041244769  0.00070103961
      4681         769   2072           0.00041244769  0.00070103961
      4712         769   2072           0.00041244769  0.00070103961
      4743         769   2072           0.00041244769  0.00070103961
      4774         769   2072           0.00041244769  0.00070103961
      4805         769   2072           0.00041244769  0.00070103961
      4836         769   2071           0.00041226554  0.00070103961
      4867         769   2072           0.00041244769  0.00070103961
      4898         769   2072           0.00041244769  0.00070103961
      4929         769   2072           0.00041244769  0.00070103961
      4960         769   2071           0.00041236811  0.00070103961
      4991         769   2071           0.00041236811  0.00070103961
      5000         769   2071           0.00041236811  0.00070103961
Loop time of 3.55423 on 8 procs for 5000 steps with 769 atoms

94.7% CPU use with 8 MPI tasks x 1 OpenMP threads

MPI task timing breakdown:
Section |  min time  |  avg time  |  max time  |%varavg| %total
---------------------------------------------------------------
Pair    | 0.057337   | 0.061172   | 0.066952   |   1.2 |  1.72
Bond    | 0.018636   | 0.021066   | 0.029466   |   2.2 |  0.59
Neigh   | 1.4773     | 1.5008     | 1.5324     |   1.6 | 42.23
Comm    | 0.37045    | 0.40621    | 0.44239    |   3.7 | 11.43
Output  | 0.0070714  | 0.013014   | 0.052934   |  13.2 |  0.37
Modify  | 1.4624     | 1.506      | 1.5194     |   1.4 | 42.37
Other   |            | 0.04595    |            |       |  1.29

Nlocal:         96.125 ave         101 max          87 min
Histogram: 1 0 1 0 0 0 1 3 0 2
Nghost:         396.75 ave         488 max         311 min
Histogram: 4 0 0 0 0 0 0 0 0 4
Neighs:        2085.75 ave        2346 max        1787 min
Histogram: 1 0 0 2 1 1 1 0 0 2

Total # of neighbors = 16686
Ave neighs/atom = 21.698309
Ave special neighs/atom = 5.3862159
Neighbor list builds = 5000
Dangerous builds = 0
unfix           dynamics

# Outputs in command window
thermo_style    custom step atoms v_vbonds ebond epair lx ly fmax
WARNING: New thermo_style command, previous thermo_modify settings will be lost (src/output.cpp:904)
thermo          $(v_nthermo)
thermo          31
thermo_modify	flush yes lost warn lost/bond warn

#---------------------------------------------------------------------
# Setup BC
#---------------------------------------------------------------------

### Define groups ###
region		    top block INF INF $(yhi-v_H0/20.0) INF INF INF units box
region		    top block INF INF 0.022461460000000002535 INF INF INF units box
region		    bot block INF INF INF $(ylo+v_H0/20.0)  INF INF units box
region		    bot block INF INF INF -0.02249606000000000175  INF INF units box
group		    top_atoms region top
49 atoms in group top_atoms
group		    bot_atoms region bot
44 atoms in group bot_atoms
group       	top_atoms include molecule
49 atoms in group top_atoms
group       	bot_atoms include molecule
44 atoms in group bot_atoms
group       	bulk_atoms subtract all top_atoms bot_atoms
676 atoms in group bulk_atoms
group       	boundary_atoms subtract all bulk_atoms
93 atoms in group boundary_atoms

# Boundary conditions
timestep        $(v_dt)
timestep        0.00067563187300704501473
fix             top_zero top_atoms setforce 0.0 0.0 0.0
fix             bot_zero bot_atoms setforce 0.0 0.0 0.0
fix             integrate all nve
fix             damp all viscous $(c_minmass*v_chi/v_dt)
fix             damp all viscous 0.001177964170587783143

# Equilibrate
reset_timestep  0 time 0
dump            mydumpdebug all custom 5000 atoms_equilib.dump id type mol x y
dump_modify     mydumpdebug first yes
dump 		    bondsdumpdebug all local 5000 bonds_equilib.dump c_1[*] c_2[*]
dump_modify     bondsdumpdebug first yes
fix             2dfix all enforce2d
run             50000
Generated 0 of 0 mixed pair_coeff terms from geometric mixing rule
Neighbor list info ...
  update: every = 1 steps, delay = 0 steps, check = yes
  max neighbors/atom: 100000, page size: 1000000
  master list distance cutoff = 0.01855
  ghost atom cutoff = 0.01855
  binsize = 0.009275, bins = 6 6 1
  2 neighbor lists, perpetual/occasional/extra = 2 0 0
  (1) pair yukawa, perpetual, trim from (2)
      attributes: half, newton on, cut 0.007349999999999999
      pair build: trim
      stencil: none
      bin: none
  (2) pair zero, perpetual
      attributes: half, newton on
      pair build: half/bin/newton
      stencil: half/bin/2d
      bin: standard
Per MPI rank memory allocation (min/avg/max) = 21.47 | 21.55 | 21.64 Mbytes
   Step        Atoms       v_vbonds        E_bond         E_pair           Lx             Ly            Fmax     
         0         769   2071           0.00041236811  0.00070103961  0.0499632      0.0499528      0.0057710232 
        31         769   2071           0.00045423384  0.00050825375  0.0499632      0.0499528      0.0056874752 
        62         769   2071           0.00046343473  0.00046649432  0.053420591    0.0499528      0.0040758948 
        93         769   2071           0.0004718978   0.00042966256  0.053420591    0.0499528      0.0036813833 
       124         769   2071           0.00048489556  0.00039355435  0.056581348    0.0499528      0.0030051275 
       155         769   2071           0.00049166597  0.00036637862  0.056581348    0.0499528      0.0029495818 
       186         769   2071           0.00049899685  0.00033961551  0.058798505    0.0499528      0.0031672574 
       217         769   2071           0.00049970095  0.00033020581  0.058798505    0.0499528      0.0024407324 
       248         769   2071           0.00050531502  0.00032128287  0.058798505    0.0499528      0.0031830581 
       279         769   2071           0.0005105666   0.00030901961  0.058798505    0.0499528      0.0023657654 
       310         769   2071           0.00051172399  0.00030110489  0.060273607    0.0499528      0.00210826   
       341         769   2071           0.00051156548  0.00029681309  0.060273607    0.0499528      0.0017499578 
       372         769   2071           0.00051234389  0.00029806578  0.060273607    0.0499528      0.0018298108 
       403         769   2071           0.0005092233   0.00029579109  0.060273607    0.0499528      0.0017546757 
       434         769   2071           0.00050867347  0.00029155985  0.060273607    0.0499528      0.0013427315 
       465         769   2071           0.00050365785  0.00029716658  0.060273607    0.0499528      0.0012729967 
       496         769   2071           0.00049905516  0.00030687437  0.060273607    0.0499528      0.0013988005 
       527         769   2071           0.00049550592  0.00030697674  0.060273607    0.0499528      0.0012049456 
       558         769   2071           0.00049113735  0.00031519851  0.060273607    0.0499528      0.0012350636 
       589         769   2071           0.00048538843  0.00032109375  0.060273607    0.0499528      0.0012522712 
       620         769   2071           0.00048368018  0.0003246966   0.060273607    0.0499528      0.0011358999 
       651         769   2071           0.00048057385  0.00032870845  0.060273607    0.0499528      0.0010320722 
       682         769   2071           0.00047888759  0.00033023476  0.060273607    0.0499528      0.00097140433
       713         769   2071           0.00047679958  0.00033414848  0.060273607    0.0499528      0.0010943475 
       744         769   2071           0.00047526154  0.00033369495  0.060273607    0.0499528      0.0010379657 
       775         769   2071           0.00047402623  0.00033369028  0.060273607    0.0499528      0.00095762226
       806         769   2071           0.00047350444  0.00033755761  0.060273607    0.0499528      0.0011999598 
       837         769   2071           0.00047392585  0.00033753226  0.060273607    0.0499528      0.0010800258 
       868         769   2071           0.00047389098  0.0003371567   0.060273607    0.0499528      0.00083396555
       899         769   2071           0.00047446494  0.00033664524  0.060273607    0.0499528      0.00094045472
       930         769   2071           0.0004746668   0.00033325261  0.060273607    0.0499528      0.00099502916
       961         769   2071           0.0004750666   0.00033508261  0.060273607    0.0499528      0.00066808279
       992         769   2071           0.00047661091  0.00033173934  0.060273607    0.0499528      0.00099581436
      1023         769   2071           0.00047685241  0.0003313631   0.060273607    0.0499528      0.001202855  
      1054         769   2071           0.00047817762  0.00032906351  0.060273607    0.0499528      0.0008785704 
      1085         769   2071           0.00047947202  0.00032658261  0.060273607    0.0499528      0.00091916463
      1116         769   2071           0.00047959743  0.00032761957  0.060273607    0.0499528      0.00096416239
      1147         769   2071           0.00047989564  0.00032584341  0.060273607    0.0499528      0.00091809073
      1178         769   2071           0.00047998414  0.00032686416  0.060273607    0.0499528      0.00098622922
      1209         769   2071           0.00048056673  0.00032557171  0.060273607    0.0499528      0.00085680668
      1240         769   2071           0.0004800982   0.00032611793  0.060273607    0.0499528      0.00089888533
      1271         769   2071           0.00047990063  0.00032471803  0.060273607    0.0499528      0.00098334728
      1302         769   2071           0.00048047748  0.00032347523  0.060273607    0.0499528      0.00080809287
      1333         769   2071           0.00047986257  0.00032735561  0.060273607    0.0499528      0.0009354738 
      1364         769   2071           0.0004799244   0.00032826678  0.060273607    0.0499528      0.00072866303
      1395         769   2071           0.00048003585  0.00032691545  0.060273607    0.0499528      0.0007776325 
      1426         769   2071           0.00047976804  0.00032571248  0.060273607    0.0499528      0.00079281486
      1457         769   2071           0.00047911405  0.00032489501  0.060273607    0.0499528      0.00089405532
      1488         769   2071           0.00047901307  0.00032864727  0.060273607    0.0499528      0.00099271966
      1519         769   2071           0.00047882806  0.00032690601  0.060273607    0.0499528      0.0009333851 
      1550         769   2071           0.00047885335  0.00032565193  0.060273607    0.0499528      0.00071145452
      1581         769   2071           0.00047910807  0.00032719145  0.060273607    0.0499528      0.00083584777
      1612         769   2071           0.00047904041  0.00032919711  0.060273607    0.0499528      0.00095068705
      1643         769   2071           0.0004793104   0.00032807136  0.060273607    0.0499528      0.0008417822 
      1674         769   2071           0.00047917118  0.00032929588  0.060273607    0.0499528      0.00097068291
      1705         769   2071           0.00047953507  0.00032615661  0.060273607    0.0499528      0.0007656475 
      1736         769   2071           0.00047950474  0.00032665298  0.060273607    0.0499528      0.00074881775
      1767         769   2071           0.00047964536  0.00032798842  0.060273607    0.0499528      0.00086693973
      1798         769   2071           0.0004795244   0.00032728501  0.060273607    0.0499528      0.00097349285
      1829         769   2071           0.00047959834  0.00032787753  0.060273607    0.0499528      0.00078749971
      1860         769   2071           0.00047956976  0.00032737842  0.060273607    0.0499528      0.00095571932
      1891         769   2071           0.00047948945  0.00032754471  0.060273607    0.0499528      0.00074945965
      1922         769   2071           0.00047952219  0.00032707693  0.060273607    0.0499528      0.00074513085
      1953         769   2071           0.00047953312  0.00032609491  0.060273607    0.0499528      0.00086098252
      1984         769   2071           0.00047978791  0.00032532122  0.060273607    0.0499528      0.00082450206
      2015         769   2071           0.00047965772  0.00032861751  0.060273607    0.0499528      0.00086293632
      2046         769   2071           0.00047954834  0.00032927382  0.060273607    0.0499528      0.00071715324
      2077         769   2071           0.00047944742  0.00032499623  0.060273607    0.0499528      0.00081034665
      2108         769   2071           0.00047957146  0.00032462486  0.060273607    0.0499528      0.00086330594
      2139         769   2071           0.0004797413   0.0003252336   0.060273607    0.0499528      0.00072896264
      2170         769   2071           0.00047951845  0.00032807006  0.060273607    0.0499528      0.00073377444
      2201         769   2071           0.00047943942  0.00032721509  0.060273607    0.0499528      0.00090933404
      2232         769   2071           0.00047947734  0.00032960564  0.060273607    0.0499528      0.00076431397
      2263         769   2071           0.00047972324  0.00032760705  0.060273607    0.0499528      0.00080781338
      2294         769   2071           0.00047948761  0.0003277842   0.060273607    0.0499528      0.00065862031
      2325         769   2071           0.00047963109  0.000325488    0.060273607    0.0499528      0.00084443212
      2356         769   2071           0.00047950964  0.00032532991  0.060273607    0.0499528      0.00075933008
      2387         769   2071           0.00047942361  0.00032733077  0.060273607    0.0499528      0.00090890531
      2418         769   2071           0.00047968     0.00032446202  0.060273607    0.0499528      0.00090349573
      2449         769   2071           0.00047965197  0.00032697587  0.060273607    0.0499528      0.00098183882
      2480         769   2071           0.00047935449  0.00032641577  0.060273607    0.0499528      0.00086275465
      2511         769   2071           0.00047910516  0.0003284339   0.060273607    0.0499528      0.00084807378
      2542         769   2071           0.00047934461  0.00032782021  0.060273607    0.0499528      0.00067017426
      2573         769   2071           0.00047949423  0.00032552672  0.060273607    0.0499528      0.00076166253
      2604         769   2071           0.00047944123  0.00032758025  0.060273607    0.0499528      0.00091897883
      2635         769   2071           0.00047946508  0.00032619507  0.060273607    0.0499528      0.00087275086
      2666         769   2071           0.00047963643  0.00032791706  0.060273607    0.0499528      0.0007741741 
      2697         769   2071           0.0004795021   0.00032707815  0.060273607    0.0499528      0.00097429136
      2728         769   2071           0.0004795831   0.00032689661  0.060273607    0.0499528      0.0007700357 
      2759         769   2071           0.00047966531  0.00032670689  0.060273607    0.0499528      0.00085159259
      2790         769   2071           0.00047937755  0.00032560873  0.060273607    0.0499528      0.00085999731
      2821         769   2071           0.00047948491  0.00032557135  0.060273607    0.0499528      0.00067956475
      2852         769   2071           0.00047937634  0.00032651076  0.060273607    0.0499528      0.00072050996
      2883         769   2071           0.00047956585  0.00032808061  0.060273607    0.0499528      0.0009456484 
      2914         769   2071           0.00047956216  0.00032609228  0.060273607    0.0499528      0.00085185965
      2945         769   2071           0.00047985808  0.00032771856  0.060273607    0.0499528      0.00087124558
      2976         769   2071           0.00047951248  0.00032708185  0.060273607    0.0499528      0.00070304206
      3007         769   2071           0.00047939318  0.00032870686  0.060273607    0.0499528      0.00075704702
      3038         769   2071           0.00047927882  0.00032703054  0.060273607    0.0499528      0.0006621045 
      3069         769   2071           0.00047961477  0.00032807404  0.060273607    0.0499528      0.00076083458
      3100         769   2071           0.00047956134  0.00032810521  0.060273607    0.0499528      0.00081993719
      3131         769   2071           0.00047951101  0.00032597644  0.060273607    0.0499528      0.00081175561
      3162         769   2071           0.00047959001  0.00032685406  0.060273607    0.0499528      0.00073152081
      3193         769   2071           0.00047964221  0.00032726573  0.060273607    0.0499528      0.00079686411
      3224         769   2071           0.00047955678  0.00032850228  0.060273607    0.0499528      0.00078620711
      3255         769   2071           0.00047931242  0.00032663815  0.060273607    0.0499528      0.00085736583
      3286         769   2071           0.00047959695  0.00032713999  0.060273607    0.0499528      0.0007266458 
      3317         769   2071           0.00047950239  0.00032657981  0.060273607    0.0499528      0.00087300047
      3348         769   2071           0.00047931066  0.00032561356  0.060273607    0.0499528      0.00079383263
      3379         769   2071           0.00047911887  0.00032793576  0.060273607    0.0499528      0.00085351566
      3410         769   2071           0.00047934126  0.00032793904  0.060273607    0.0499528      0.000816174  
      3441         769   2071           0.00047975044  0.00032440265  0.060273607    0.0499528      0.00074316381
      3472         769   2071           0.00047958381  0.00032456542  0.060273607    0.0499528      0.00085958923
      3503         769   2071           0.00047958426  0.00032575823  0.060273607    0.0499528      0.00074819367
      3534         769   2071           0.00047948091  0.00032629101  0.060273607    0.0499528      0.00080999541
      3565         769   2071           0.00047931078  0.00032713881  0.060273607    0.0499528      0.00090742354
      3596         769   2071           0.00047942963  0.00032877     0.060273607    0.0499528      0.00076672101
      3627         769   2071           0.00047944127  0.00032359509  0.060273607    0.0499528      0.00075827096
      3658         769   2071           0.00047970677  0.00032606326  0.060273607    0.0499528      0.00092349217
      3689         769   2071           0.00047965358  0.00032691183  0.060273607    0.0499528      0.00096724149
      3720         769   2071           0.00047960522  0.00032631345  0.060273607    0.0499528      0.00077295242
      3751         769   2071           0.00047962666  0.00032729749  0.060273607    0.0499528      0.0008661222 
      3782         769   2071           0.00047935464  0.00032758514  0.060273607    0.0499528      0.00081490734
      3813         769   2071           0.00047945149  0.00032480063  0.060273607    0.0499528      0.00088574491
      3844         769   2071           0.00047923599  0.00032571286  0.060273607    0.0499528      0.00086532057
      3875         769   2071           0.00047948752  0.00032899836  0.060273607    0.0499528      0.00088335354
      3906         769   2071           0.00047987949  0.00032635409  0.060273607    0.0499528      0.00089734394
      3937         769   2071           0.00047970831  0.00032598985  0.060273607    0.0499528      0.00082638797
      3968         769   2071           0.00047957026  0.00032679648  0.060273607    0.0499528      0.00084311082
      3999         769   2071           0.00047931636  0.00032621959  0.060273607    0.0499528      0.00091387751
      4030         769   2071           0.00047960304  0.0003256771   0.060273607    0.0499528      0.00092758479
      4061         769   2071           0.00047923566  0.00032794581  0.060273607    0.0499528      0.00077767947
      4092         769   2071           0.00047972477  0.00032665486  0.060273607    0.0499528      0.0008571882 
      4123         769   2071           0.0004795449   0.00032625351  0.060273607    0.0499528      0.00079686466
      4154         769   2071           0.0004796612   0.00032698587  0.060273607    0.0499528      0.00070254109
      4185         769   2071           0.00047931344  0.00032433689  0.060273607    0.0499528      0.00076837435
      4216         769   2071           0.00047954261  0.00032586894  0.060273607    0.0499528      0.00084206056
      4247         769   2071           0.00047945848  0.00032845494  0.060273607    0.0499528      0.00084781967
      4278         769   2071           0.00047948277  0.00032999093  0.060273607    0.0499528      0.00079653137
      4309         769   2071           0.00047961397  0.0003298692   0.060273607    0.0499528      0.00085193297
      4340         769   2071           0.0004795581   0.00032540848  0.060273607    0.0499528      0.00085005603
      4371         769   2071           0.00047957259  0.00032664175  0.060273607    0.0499528      0.00073979721
      4402         769   2071           0.00047947302  0.00032470536  0.060273607    0.0499528      0.00082229848
      4433         769   2071           0.00047926475  0.00032845998  0.060273607    0.0499528      0.00090973366
      4464         769   2071           0.00047926453  0.00032624271  0.060273607    0.0499528      0.00096747031
      4495         769   2071           0.00047946696  0.00032574329  0.060273607    0.0499528      0.00072957097
      4526         769   2071           0.00047941478  0.0003260042   0.060273607    0.0499528      0.00093005941
      4557         769   2071           0.00047913167  0.00032723605  0.060273607    0.0499528      0.00074099925
      4588         769   2071           0.00047941897  0.00032517096  0.060273607    0.0499528      0.00077967394
      4619         769   2071           0.00047954259  0.00032735291  0.060273607    0.0499528      0.00079948027
      4650         769   2071           0.0004794657   0.00032648451  0.060273607    0.0499528      0.0007207973 
      4681         769   2071           0.00047954091  0.00032567069  0.060273607    0.0499528      0.0008623239 
      4712         769   2071           0.00047955488  0.00032608873  0.060273607    0.0499528      0.00091559495
      4743         769   2071           0.00047925089  0.00032744321  0.060273607    0.0499528      0.00077989665
      4774         769   2071           0.0004796269   0.00032639925  0.060273607    0.0499528      0.00088629246
      4805         769   2071           0.00047934309  0.00032669939  0.060273607    0.0499528      0.0008721265 
      4836         769   2071           0.00047977493  0.00032613829  0.060273607    0.0499528      0.00089074092
      4867         769   2071           0.00047932061  0.00032730932  0.060273607    0.0499528      0.00092395238
      4898         769   2071           0.00047925777  0.00032497763  0.060273607    0.0499528      0.00092442425
      4929         769   2071           0.0004795133   0.00032941834  0.060273607    0.0499528      0.00094999837
      4960         769   2071           0.00047965696  0.00032762907  0.060273607    0.0499528      0.00084854236
      4991         769   2071           0.00047978537  0.00032349325  0.060273607    0.0499528      0.00086797306
      5022         769   2071           0.00047929955  0.00032838488  0.060273607    0.0499528      0.00083711509
      5053         769   2071           0.00047966555  0.00032699835  0.060273607    0.0499528      0.00089520618
      5084         769   2071           0.0004794616   0.00032765652  0.060273607    0.0499528      0.00063346778
      5115         769   2071           0.0004797488   0.00032715157  0.060273607    0.0499528      0.00079990214
      5146         769   2071           0.00047967114  0.00032799734  0.060273607    0.0499528      0.00071316927
      5177         769   2071           0.00047932968  0.00032749972  0.060273607    0.0499528      0.00083936893
      5208         769   2071           0.00047967868  0.00032973438  0.060273607    0.0499528      0.00083527492
      5239         769   2071           0.00047937872  0.00033117873  0.060273607    0.0499528      0.00084662267
      5270         769   2071           0.00047970072  0.00032635355  0.060273607    0.0499528      0.00078324804
      5301         769   2071           0.00047924914  0.00032712137  0.060273607    0.0499528      0.00092956981
      5332         769   2071           0.00047978253  0.00032521484  0.060273607    0.0499528      0.0008345366 
      5363         769   2071           0.00047954613  0.00032885553  0.060273607    0.0499528      0.000677013  
      5394         769   2071           0.00047962569  0.00032754799  0.060273607    0.0499528      0.00082307427
      5425         769   2071           0.00047945227  0.00032653358  0.060273607    0.0499528      0.00074409675
      5456         769   2071           0.0004796803   0.00032735243  0.060273607    0.0499528      0.00067670875
      5487         769   2071           0.0004793517   0.00032590897  0.060273607    0.0499528      0.00094106697
      5518         769   2071           0.00047973283  0.00032673507  0.060273607    0.0499528      0.00091226241
      5549         769   2071           0.00047944073  0.00032642125  0.060273607    0.0499528      0.00079818049
      5580         769   2071           0.00047972052  0.00032925831  0.060273607    0.0499528      0.0008983766 
      5611         769   2071           0.00047968257  0.00032574812  0.060273607    0.0499528      0.00083351262
      5642         769   2071           0.00047943504  0.00032419512  0.060273607    0.0499528      0.00083068375
      5673         769   2071           0.00047948197  0.00032718353  0.060273607    0.0499528      0.00080953307
      5704         769   2071           0.00047983444  0.00032582237  0.060273607    0.0499528      0.00080042161
      5735         769   2071           0.000479475    0.00032642745  0.060273607    0.0499528      0.00069969474
      5766         769   2071           0.00047958882  0.00032653059  0.060273607    0.0499528      0.00083228112
      5797         769   2071           0.00047959191  0.00032549218  0.060273607    0.0499528      0.00092817755
      5828         769   2071           0.00047964303  0.00032695407  0.060273607    0.0499528      0.00067353076
      5859         769   2071           0.00047935444  0.00032856522  0.060273607    0.0499528      0.00084560162
      5890         769   2071           0.00047963668  0.00032483559  0.060273607    0.0499528      0.00085578304
      5921         769   2071           0.00047939459  0.00032776413  0.060273607    0.0499528      0.00089852556
      5952         769   2071           0.00047966288  0.0003269712   0.060273607    0.0499528      0.00073785324
      5983         769   2071           0.0004796888   0.00032820261  0.060273607    0.0499528      0.00098076026
      6014         769   2071           0.00047903742  0.00032749007  0.060273607    0.0499528      0.00076803872
      6045         769   2071           0.00047958017  0.00032838956  0.060273607    0.0499528      0.00074161761
      6076         769   2071           0.00047933453  0.00032782097  0.060273607    0.0499528      0.00081085259
      6107         769   2071           0.00047958566  0.00032685436  0.060273607    0.0499528      0.00084462396
      6138         769   2071           0.00047945353  0.00032806759  0.060273607    0.0499528      0.00076635598
      6169         769   2071           0.0004794089   0.00032634701  0.060273607    0.0499528      0.00096673249
      6200         769   2071           0.00047932257  0.00032752245  0.060273607    0.0499528      0.00081069682
      6231         769   2071           0.00047966768  0.00032716256  0.060273607    0.0499528      0.00090687952
      6262         769   2071           0.00047962059  0.00032806954  0.060273607    0.0499528      0.00090562327
      6293         769   2071           0.00047930763  0.00032698115  0.060273607    0.0499528      0.00083188307
      6324         769   2071           0.00047959674  0.00032877859  0.060273607    0.0499528      0.00086301134
      6355         769   2071           0.00047942832  0.00032590276  0.060273607    0.0499528      0.00074885366
      6386         769   2071           0.00047957574  0.00032655147  0.060273607    0.0499528      0.00092883276
      6417         769   2071           0.00047968846  0.00032759831  0.060273607    0.0499528      0.00077704525
      6448         769   2071           0.0004794661   0.00032755684  0.060273607    0.0499528      0.00092374154
      6479         769   2071           0.00047942164  0.00032597376  0.060273607    0.0499528      0.00076756544
      6510         769   2071           0.00047937575  0.00032790522  0.060273607    0.0499528      0.00071335069
      6541         769   2071           0.00047935703  0.00032561626  0.060273607    0.0499528      0.00086984178
      6572         769   2071           0.00047978199  0.00032939497  0.060273607    0.0499528      0.00092613348
      6603         769   2071           0.00047980252  0.00032790503  0.060273607    0.0499528      0.00082456075
      6634         769   2071           0.00047950464  0.00032792081  0.060273607    0.0499528      0.00075847775
      6665         769   2071           0.00047983353  0.00032578697  0.060273607    0.0499528      0.00085397553
      6696         769   2071           0.00047956496  0.00032649492  0.060273607    0.0499528      0.00086603912
      6727         769   2071           0.00047946179  0.00032794311  0.060273607    0.0499528      0.00082627128
      6758         769   2071           0.00047943716  0.00032565096  0.060273607    0.0499528      0.00087103937
      6789         769   2071           0.00047917042  0.00032546702  0.060273607    0.0499528      0.00087060268
      6820         769   2071           0.00047947379  0.00032718767  0.060273607    0.0499528      0.00080361237
      6851         769   2071           0.00047967011  0.00032635239  0.060273607    0.0499528      0.00093056885
      6882         769   2071           0.0004796569   0.00032652336  0.060273607    0.0499528      0.00089752657
      6913         769   2071           0.00047944267  0.00032907801  0.060273607    0.0499528      0.00076522379
      6944         769   2071           0.00047956677  0.00032822164  0.060273607    0.0499528      0.00095610356
      6975         769   2071           0.00047966236  0.0003265089   0.060273607    0.0499528      0.00072398356
      7006         769   2071           0.00047987406  0.00032550625  0.060273607    0.0499528      0.00085292141
      7037         769   2071           0.00047941512  0.00032768102  0.060273607    0.0499528      0.0008155857 
      7068         769   2071           0.00047938473  0.00032892744  0.060273607    0.0499528      0.00095599557
      7099         769   2071           0.0004793805   0.00032798978  0.060273607    0.0499528      0.00083384457
      7130         769   2071           0.00047958493  0.00032523249  0.060273607    0.0499528      0.00080245675
      7161         769   2071           0.00047953507  0.00032590456  0.060273607    0.0499528      0.00080783422
      7192         769   2071           0.00047955596  0.00032527123  0.060273607    0.0499528      0.00077474852
      7223         769   2071           0.00047959123  0.00032712948  0.060273607    0.0499528      0.00086564005
      7254         769   2071           0.00047935706  0.00032644809  0.060273607    0.0499528      0.00089617315
      7285         769   2071           0.00047967653  0.00032571946  0.060273607    0.0499528      0.00084785981
      7316         769   2071           0.0004796792   0.00032598436  0.060273607    0.0499528      0.00084875511
      7347         769   2071           0.00047967713  0.00032816631  0.060273607    0.0499528      0.00094809063
      7378         769   2071           0.00048002921  0.00032740655  0.060273607    0.0499528      0.00075247475
      7409         769   2071           0.00047958533  0.00032403211  0.060273607    0.0499528      0.00080524841
      7440         769   2071           0.00047966217  0.00032787305  0.060273607    0.0499528      0.00076724059
      7471         769   2071           0.00047925154  0.00032738788  0.060273607    0.0499528      0.00092992981
      7502         769   2071           0.00047938876  0.00032735676  0.060273607    0.0499528      0.00093919025
      7533         769   2071           0.00047952877  0.00032719905  0.060273607    0.0499528      0.00093060409
      7564         769   2071           0.00047953251  0.00032412387  0.060273607    0.0499528      0.00076796301
      7595         769   2071           0.00047950327  0.00032602351  0.060273607    0.0499528      0.00079526242
      7626         769   2071           0.0004795708   0.00032837955  0.060273607    0.0499528      0.0009118245 
      7657         769   2071           0.00047944772  0.00032794165  0.060273607    0.0499528      0.00084891354
      7688         769   2071           0.00047976521  0.00032465199  0.060273607    0.0499528      0.00071456116
      7719         769   2071           0.00047950118  0.00032766424  0.060273607    0.0499528      0.00081285542
      7750         769   2071           0.00047980916  0.00032680663  0.060273607    0.0499528      0.00097393455
      7781         769   2071           0.00047950586  0.00032982717  0.060273607    0.0499528      0.00085521344
      7812         769   2071           0.00047946728  0.00032853106  0.060273607    0.0499528      0.0007904947 
      7843         769   2071           0.0004793779   0.00032724057  0.060273607    0.0499528      0.00089446823
      7874         769   2071           0.00047953616  0.00032487617  0.060273607    0.0499528      0.00066849701
      7905         769   2071           0.00047953742  0.00032689774  0.060273607    0.0499528      0.00075223483
      7936         769   2071           0.00047964966  0.00032615351  0.060273607    0.0499528      0.00073777065
      7967         769   2071           0.00047991192  0.00032427578  0.060273607    0.0499528      0.00092858526
      7998         769   2071           0.0004794778   0.00032579667  0.060273607    0.0499528      0.00082901232
      8029         769   2071           0.00047949071  0.000328257    0.060273607    0.0499528      0.00080075144
      8060         769   2071           0.00047955935  0.00032488233  0.060273607    0.0499528      0.00086741472
      8091         769   2071           0.00047963259  0.00032605945  0.060273607    0.0499528      0.00070364762
      8122         769   2071           0.00047962769  0.00032561261  0.060273607    0.0499528      0.00076812952
      8153         769   2071           0.00047942337  0.00032839315  0.060273607    0.0499528      0.0008009273 
      8184         769   2071           0.00047969434  0.0003267848   0.060273607    0.0499528      0.00085519842
      8215         769   2071           0.00047934597  0.00032604028  0.060273607    0.0499528      0.00094742851
      8246         769   2071           0.00047941193  0.00032884528  0.060273607    0.0499528      0.00074041574
      8277         769   2071           0.00047931133  0.0003274558   0.060273607    0.0499528      0.00073997058
      8308         769   2071           0.00047951816  0.00032534739  0.060273607    0.0499528      0.00079602406
      8339         769   2071           0.00047983412  0.00032608812  0.060273607    0.0499528      0.00091461421
      8370         769   2071           0.00047950005  0.00032823809  0.060273607    0.0499528      0.00082537537
      8401         769   2071           0.00047929576  0.00032406389  0.060273607    0.0499528      0.00091325716
      8432         769   2071           0.00047936755  0.0003280756   0.060273607    0.0499528      0.00080307346
      8463         769   2071           0.00047934539  0.00032741025  0.060273607    0.0499528      0.00074028571
      8494         769   2071           0.00047944957  0.00032810839  0.060273607    0.0499528      0.00088261413
      8525         769   2071           0.00047953373  0.00032463806  0.060273607    0.0499528      0.00084119792
      8556         769   2071           0.00047963876  0.00032702158  0.060273607    0.0499528      0.00074836245
      8587         769   2071           0.00047944777  0.00032586441  0.060273607    0.0499528      0.00084729205
      8618         769   2071           0.00047967769  0.00032797356  0.060273607    0.0499528      0.0009611772 
      8649         769   2071           0.00047941269  0.00032753608  0.060273607    0.0499528      0.00067991694
      8680         769   2071           0.00047952592  0.00032576111  0.060273607    0.0499528      0.00080075659
      8711         769   2071           0.00047928103  0.00032545699  0.060273607    0.0499528      0.00069833034
      8742         769   2071           0.00047940127  0.0003301228   0.060273607    0.0499528      0.00093000147
      8773         769   2071           0.00047950085  0.00032795111  0.060273607    0.0499528      0.00085177743
      8804         769   2071           0.00047925241  0.00032768592  0.060273607    0.0499528      0.00076174682
      8835         769   2071           0.00047940256  0.00032737575  0.060273607    0.0499528      0.00092484264
      8866         769   2071           0.00047919047  0.00032644947  0.060273607    0.0499528      0.00081157813
      8897         769   2071           0.00047952155  0.00032625947  0.060273607    0.0499528      0.00084901291
      8928         769   2071           0.00047949746  0.00032686066  0.060273607    0.0499528      0.00065874984
      8959         769   2071           0.00047948017  0.00032858498  0.060273607    0.0499528      0.00069524192
      8990         769   2071           0.0004797275   0.00032771146  0.060273607    0.0499528      0.00085988097
      9021         769   2071           0.00047927684  0.00032747975  0.060273607    0.0499528      0.00080228993
      9052         769   2071           0.00047920315  0.00032771248  0.060273607    0.0499528      0.00089858201
      9083         769   2071           0.00047934448  0.00032450066  0.060273607    0.0499528      0.00077144568
      9114         769   2071           0.0004793946   0.00032841804  0.060273607    0.0499528      0.000742092  
      9145         769   2071           0.00047952629  0.00032592706  0.060273607    0.0499528      0.00083775538
      9176         769   2071           0.00047935749  0.0003274062   0.060273607    0.0499528      0.00080336073
      9207         769   2071           0.00047951612  0.00032651764  0.060273607    0.0499528      0.00077972184
      9238         769   2071           0.00047937637  0.00032436878  0.060273607    0.0499528      0.00078329259
      9269         769   2071           0.00047953562  0.00032601127  0.060273607    0.0499528      0.00084421815
      9300         769   2071           0.00047953576  0.00032650194  0.060273607    0.0499528      0.00077819312
      9331         769   2071           0.00047957742  0.00032686174  0.060273607    0.0499528      0.00070028267
      9362         769   2071           0.0004797049   0.00032706364  0.060273607    0.0499528      0.00076829285
      9393         769   2071           0.00047966937  0.0003271926   0.060273607    0.0499528      0.0009024297 
      9424         769   2071           0.00047941975  0.00032852818  0.060273607    0.0499528      0.00064324206
      9455         769   2071           0.00047944634  0.00032714163  0.060273607    0.0499528      0.00097177289
      9486         769   2071           0.00047941186  0.00032620686  0.060273607    0.0499528      0.00078771417
      9517         769   2071           0.00047959173  0.00032742827  0.060273607    0.0499528      0.00081600818
      9548         769   2071           0.00047962527  0.00032695717  0.060273607    0.0499528      0.00083420898
      9579         769   2071           0.00047936612  0.00032913775  0.060273607    0.0499528      0.00077446838
      9610         769   2071           0.00047942659  0.00032886803  0.060273607    0.0499528      0.00083247299
      9641         769   2071           0.00047950031  0.00032844531  0.060273607    0.0499528      0.00087184294
      9672         769   2071           0.00047954087  0.00032409194  0.060273607    0.0499528      0.00082145933
      9703         769   2071           0.00047963081  0.00032505537  0.060273607    0.0499528      0.00073434613
      9734         769   2071           0.00047961732  0.00032699171  0.060273607    0.0499528      0.00076765225
      9765         769   2071           0.00047953676  0.00032707518  0.060273607    0.0499528      0.00091337242
      9796         769   2071           0.0004796603   0.00032882573  0.060273607    0.0499528      0.00082182027
      9827         769   2071           0.00047934714  0.00032727708  0.060273607    0.0499528      0.00083737212
      9858         769   2071           0.00047968095  0.00032637312  0.060273607    0.0499528      0.00084174661
      9889         769   2071           0.00047960496  0.00032547136  0.060273607    0.0499528      0.00070790236
      9920         769   2071           0.00047941179  0.00032826795  0.060273607    0.0499528      0.0008233753 
      9951         769   2071           0.00047968519  0.00032647817  0.060273607    0.0499528      0.00075717814
      9982         769   2071           0.00047944357  0.00032992144  0.060273607    0.0499528      0.00088693042
     10013         769   2071           0.00047948279  0.00032653125  0.060273607    0.0499528      0.00089410612
     10044         769   2071           0.00047964989  0.00032887708  0.060273607    0.0499528      0.00072387712
     10075         769   2071           0.00047951457  0.00032640184  0.060273607    0.0499528      0.00078884875
     10106         769   2071           0.00047946761  0.00032620391  0.060273607    0.0499528      0.00088836553
     10137         769   2071           0.00047926189  0.00032871604  0.060273607    0.0499528      0.00088292967
     10168         769   2071           0.00047953278  0.00032569593  0.060273607    0.0499528      0.0008362048 
     10199         769   2071           0.00047951908  0.00032930254  0.060273607    0.0499528      0.00081576281
     10230         769   2071           0.00047956414  0.0003273625   0.060273607    0.0499528      0.00088717111
     10261         769   2071           0.00047969429  0.00032610048  0.060273607    0.0499528      0.00089146709
     10292         769   2071           0.00047969802  0.00032690853  0.060273607    0.0499528      0.00067134323
     10323         769   2071           0.00047977492  0.00032592579  0.060273607    0.0499528      0.00083275599
     10354         769   2071           0.00047976188  0.00032821662  0.060273607    0.0499528      0.00069676113
     10385         769   2071           0.0004794702   0.00032722875  0.060273607    0.0499528      0.0008439826 
     10416         769   2071           0.00047951673  0.00032662798  0.060273607    0.0499528      0.00089081332
     10447         769   2071           0.000479461    0.0003265948   0.060273607    0.0499528      0.00086612642
     10478         769   2071           0.00047934381  0.00032770935  0.060273607    0.0499528      0.00085352281
     10509         769   2071           0.00047932513  0.00032731446  0.060273607    0.0499528      0.00070849395
     10540         769   2071           0.00047952871  0.00032844714  0.060273607    0.0499528      0.00078353398
     10571         769   2071           0.0004797027   0.00032586043  0.060273607    0.0499528      0.0007721598 
     10602         769   2071           0.00047959137  0.00032666422  0.060273607    0.0499528      0.00074104316
     10633         769   2071           0.00047950741  0.00032859253  0.060273607    0.0499528      0.00066777994
     10664         769   2071           0.00047959116  0.0003278799   0.060273607    0.0499528      0.00071910639
     10695         769   2071           0.00047986168  0.00032650892  0.060273607    0.0499528      0.00092397186
     10726         769   2071           0.00047965161  0.00032591063  0.060273607    0.0499528      0.00077289763
     10757         769   2071           0.00047954718  0.0003238517   0.060273607    0.0499528      0.00082792992
     10788         769   2071           0.00047946078  0.00032624049  0.060273607    0.0499528      0.00098954646
     10819         769   2071           0.00047944949  0.00032638852  0.060273607    0.0499528      0.00070168372
     10850         769   2071           0.00047978231  0.00032589483  0.060273607    0.0499528      0.00078857876
     10881         769   2071           0.00047937231  0.00032627956  0.060273607    0.0499528      0.00073433729
     10912         769   2071           0.00047939155  0.00032657861  0.060273607    0.0499528      0.00077649772
     10943         769   2071           0.00047961461  0.00032686428  0.060273607    0.0499528      0.00078476188
     10974         769   2071           0.00047949055  0.00032663383  0.060273607    0.0499528      0.00097264507
     11005         769   2071           0.00047929292  0.00032786208  0.060273607    0.0499528      0.00075969272
     11036         769   2071           0.00047955321  0.00032696422  0.060273607    0.0499528      0.00084638884
     11067         769   2071           0.00047941825  0.00032791077  0.060273607    0.0499528      0.00087961646
     11098         769   2071           0.00047937281  0.00032674087  0.060273607    0.0499528      0.00080394378
     11129         769   2071           0.00047940865  0.00032654668  0.060273607    0.0499528      0.00076409399
     11160         769   2071           0.00047925232  0.0003282154   0.060273607    0.0499528      0.00090877282
     11191         769   2071           0.00047938679  0.00032507468  0.060273607    0.0499528      0.00076239986
     11222         769   2071           0.0004797273   0.00032952179  0.060273607    0.0499528      0.00068795311
     11253         769   2071           0.00047961176  0.00032637266  0.060273607    0.0499528      0.00092453766
     11284         769   2071           0.0004797625   0.00032577636  0.060273607    0.0499528      0.00086385001
     11315         769   2071           0.00047939518  0.00032873699  0.060273607    0.0499528      0.00076429256
     11346         769   2071           0.00047975135  0.00032826237  0.060273607    0.0499528      0.00078087061
     11377         769   2071           0.00047945337  0.00032633928  0.060273607    0.0499528      0.00072964759
     11408         769   2071           0.00047950389  0.00032848519  0.060273607    0.0499528      0.00081929824
     11439         769   2071           0.00047985635  0.00032571366  0.060273607    0.0499528      0.0008136861 
     11470         769   2071           0.00047957369  0.00032690614  0.060273607    0.0499528      0.00091511576
     11501         769   2071           0.00047936107  0.00032816508  0.060273607    0.0499528      0.00083728864
     11532         769   2071           0.0004793877   0.000328593    0.060273607    0.0499528      0.00086632352
     11563         769   2071           0.00047920088  0.00032529384  0.060273607    0.0499528      0.0007209771 
     11594         769   2071           0.00047918594  0.00032718836  0.060273607    0.0499528      0.00079975366
     11625         769   2071           0.00047972089  0.00032544176  0.060273607    0.0499528      0.00083884946
     11656         769   2071           0.00047943408  0.00032600535  0.060273607    0.0499528      0.00083142135
     11687         769   2071           0.00047955919  0.00032724646  0.060273607    0.0499528      0.00078227473
     11718         769   2071           0.000479193    0.00032592542  0.060273607    0.0499528      0.00083644494
     11749         769   2071           0.00047932521  0.00032725289  0.060273607    0.0499528      0.00092861474
     11780         769   2071           0.00047908066  0.00032864049  0.060273607    0.0499528      0.00074573651
     11811         769   2071           0.00047967771  0.00032502534  0.060273607    0.0499528      0.00081529589
     11842         769   2071           0.0004800365   0.00032827082  0.060273607    0.0499528      0.0008317465 
     11873         769   2071           0.00047964205  0.00032812221  0.060273607    0.0499528      0.0009752704 
     11904         769   2071           0.00047963796  0.00032659084  0.060273607    0.0499528      0.00078515708
     11935         769   2071           0.0004795015   0.0003279423   0.060273607    0.0499528      0.0009819782 
     11966         769   2071           0.00047921771  0.00032700416  0.060273607    0.0499528      0.00086254526
     11997         769   2071           0.00047941893  0.00032706625  0.060273607    0.0499528      0.00085090367
     12028         769   2071           0.00047953678  0.00032396642  0.060273607    0.0499528      0.00074806204
     12059         769   2071           0.00047984202  0.00032535597  0.060273607    0.0499528      0.00088097794
     12090         769   2071           0.00047939334  0.00032939363  0.060273607    0.0499528      0.00089187276
     12121         769   2071           0.00047961302  0.00032777244  0.060273607    0.0499528      0.00092701504
     12152         769   2071           0.00047931516  0.0003272009   0.060273607    0.0499528      0.00096363928
     12183         769   2071           0.00047978952  0.0003280791   0.060273607    0.0499528      0.00081404266
     12214         769   2071           0.000479509    0.00032739368  0.060273607    0.0499528      0.00087512285
     12245         769   2071           0.00047966919  0.00032423922  0.060273607    0.0499528      0.00080820529
     12276         769   2071           0.00047923476  0.00032686326  0.060273607    0.0499528      0.00069385697
     12307         769   2071           0.00047939679  0.00032876236  0.060273607    0.0499528      0.00077550875
     12338         769   2071           0.00047956576  0.00032704511  0.060273607    0.0499528      0.00096264261
     12369         769   2071           0.00047935636  0.00032596186  0.060273607    0.0499528      0.00090551478
     12400         769   2071           0.0004795799   0.00032800685  0.060273607    0.0499528      0.00064115998
     12431         769   2071           0.00047950175  0.00032497352  0.060273607    0.0499528      0.00075668857
     12462         769   2071           0.00047937227  0.000327265    0.060273607    0.0499528      0.00074716696
     12493         769   2071           0.00047945095  0.00032649441  0.060273607    0.0499528      0.00087360612
     12524         769   2071           0.00047944616  0.00032733977  0.060273607    0.0499528      0.00081783429
     12555         769   2071           0.00047935046  0.00032645581  0.060273607    0.0499528      0.00082160116
     12586         769   2071           0.00047954553  0.0003271901   0.060273607    0.0499528      0.00071435753
     12617         769   2071           0.00047965006  0.000326513    0.060273607    0.0499528      0.00077602431
     12648         769   2071           0.00047924777  0.00032737575  0.060273607    0.0499528      0.0007632811 
     12679         769   2071           0.00047956777  0.00032828003  0.060273607    0.0499528      0.00089924521
     12710         769   2071           0.00047956784  0.00032788487  0.060273607    0.0499528      0.00077215492
     12741         769   2071           0.00047950197  0.00032689447  0.060273607    0.0499528      0.00085435296
     12772         769   2071           0.00047929909  0.00032692457  0.060273607    0.0499528      0.00097137109
     12803         769   2071           0.00047934858  0.000329178    0.060273607    0.0499528      0.00074542776
     12834         769   2071           0.00047970638  0.00032745225  0.060273607    0.0499528      0.00091619215
     12865         769   2071           0.00047983877  0.0003249981   0.060273607    0.0499528      0.00086121809
     12896         769   2071           0.00047954586  0.00032895278  0.060273607    0.0499528      0.00090127784
     12927         769   2071           0.00047950897  0.00032970369  0.060273607    0.0499528      0.00090087483
     12958         769   2071           0.00047959308  0.00032508238  0.060273607    0.0499528      0.00089892775
     12989         769   2071           0.00047942216  0.00032690814  0.060273607    0.0499528      0.0007897309 
     13020         769   2071           0.00047950204  0.00032478336  0.060273607    0.0499528      0.00089815333
     13051         769   2071           0.00047949819  0.00032792964  0.060273607    0.0499528      0.00083468435
     13082         769   2071           0.00047956806  0.00032527423  0.060273607    0.0499528      0.00077984771
     13113         769   2071           0.00047952793  0.00032659003  0.060273607    0.0499528      0.00080899182
     13144         769   2071           0.00047936157  0.00032741076  0.060273607    0.0499528      0.00072566766
     13175         769   2071           0.0004795886   0.0003285132   0.060273607    0.0499528      0.00074713151
     13206         769   2071           0.00047967795  0.00032475831  0.060273607    0.0499528      0.00087660037
     13237         769   2071           0.00047946758  0.00032494722  0.060273607    0.0499528      0.00073364928
     13268         769   2071           0.00047953812  0.00032611294  0.060273607    0.0499528      0.00078209594
     13299         769   2071           0.00047950514  0.00032736943  0.060273607    0.0499528      0.0008326807 
     13330         769   2071           0.00047938974  0.00032804435  0.060273607    0.0499528      0.00084720254
     13361         769   2071           0.00047936026  0.00032698552  0.060273607    0.0499528      0.00079336951
     13392         769   2071           0.00047953809  0.00032792622  0.060273607    0.0499528      0.00080058245
     13423         769   2071           0.00047968081  0.00032833021  0.060273607    0.0499528      0.0007956833 
     13454         769   2071           0.00047944307  0.00032870555  0.060273607    0.0499528      0.00080834543
     13485         769   2071           0.00047952064  0.0003299784   0.060273607    0.0499528      0.00077484911
     13516         769   2071           0.00047956271  0.00032690207  0.060273607    0.0499528      0.0007944981 
     13547         769   2071           0.00047946399  0.00032577904  0.060273607    0.0499528      0.00082199911
     13578         769   2071           0.00047985316  0.00032731     0.060273607    0.0499528      0.00084507209
     13609         769   2071           0.00047948012  0.00032658373  0.060273607    0.0499528      0.00074525136
     13640         769   2071           0.00047968706  0.00032774572  0.060273607    0.0499528      0.00073705948
     13671         769   2071           0.00047942138  0.00032757836  0.060273607    0.0499528      0.00094529999
     13702         769   2071           0.00047948418  0.00032508795  0.060273607    0.0499528      0.00068958441
     13733         769   2071           0.00047955512  0.00032884906  0.060273607    0.0499528      0.00085539432
     13764         769   2071           0.00047938631  0.00032696634  0.060273607    0.0499528      0.00083262742
     13795         769   2071           0.0004796687   0.00032518534  0.060273607    0.0499528      0.00081747292
     13826         769   2071           0.00047962327  0.00032811027  0.060273607    0.0499528      0.00073137212
     13857         769   2071           0.00047944362  0.00032608842  0.060273607    0.0499528      0.00085506374
     13888         769   2071           0.00047969892  0.00032812852  0.060273607    0.0499528      0.00085357837
     13919         769   2071           0.00047958762  0.00032635994  0.060273607    0.0499528      0.0009646883 
     13950         769   2071           0.00047953563  0.00032506624  0.060273607    0.0499528      0.00080208618
     13981         769   2071           0.00047939615  0.00032749274  0.060273607    0.0499528      0.000844376  
     14012         769   2071           0.00047950338  0.00032824624  0.060273607    0.0499528      0.0007821238 
     14043         769   2071           0.00047931693  0.00032991681  0.060273607    0.0499528      0.00074918379
     14074         769   2071           0.00047958235  0.00032674881  0.060273607    0.0499528      0.00072478498
     14105         769   2071           0.000479224    0.00032934896  0.060273607    0.0499528      0.00083002766
     14136         769   2071           0.00047936241  0.00032701169  0.060273607    0.0499528      0.00073466218
[...]
     55707         769   1721           0.00041091114  0.00015565026  3.7851694      0.0040932754   0.00082963008  0.00012885783
     55738         769   1721           0.00041147444  0.00015112843  3.7867193      0.0040948233   0.00081898241  0.00013677511
     55769         769   1721           0.00041120863  0.00015381323  3.7882692      0.0040963711   0.00093446783  0.0001260235 
     55800         769   1720           0.000411004    0.00015532096  3.7898191      0.0040979191   0.00080679647  0.00012183434
     55831         769   1721           0.00041118199  0.00015006352  3.791369       0.004099467    0.00096074435  0.00013920099
     55862         769   1720           0.00041064766  0.00015062399  3.7929189      0.0041010151   0.00089461466  0.00013815228
     55893         769   1720           0.00041038557  0.00015319094  3.7944688      0.0041025631   0.00093126534  0.00012230975
     55924         769   1720           0.00040986165  0.00015363806  3.7960187      0.0041041112   0.00088284955  0.00012983868
     55955         769   1720           0.00041002656  0.0001508358   3.7975686      0.0041056594   0.00091868185  0.00013551535
     55986         769   1719           0.00040849952  0.000150764    3.7991185      0.0041072076   0.00087844924  0.00012500232
     56017         769   1719           0.00040858424  0.00015356764  3.8006684      0.0041087559   0.00085218699  0.00010955294
     56048         769   1718           0.0004083595   0.00015162554  3.8022183      0.0041103042   0.00081065191  0.00012334608
     56079         769   1718           0.00040847363  0.00015471177  3.8037682      0.0041118526   0.00089362639  0.00011052818
     56110         769   1717           0.0004081193   0.00015489552  3.8053181      0.004113401    0.00089851498  0.00012211227
     56141         769   1716           0.00040785805  0.00015257522  3.806868       0.0041149494   0.0009657321   0.00011913233
     56172         769   1716           0.00040764887  0.00015242429  3.8084179      0.0041164979   0.00089022877  0.00012139047
     56203         769   1716           0.00040786937  0.00015331657  3.8099678      0.0041180465   0.00091052072  0.00011846422
     56234         769   1717           0.00040797073  0.00015097993  3.8115177      0.0041195951   0.00087330428  0.00013176248
     56265         769   1718           0.00040849764  0.00014673393  3.8130676      0.0041211437   0.00080310181  0.00014735529
     56296         769   1718           0.00040838222  0.00015558722  3.8146175      0.0041226924   0.00089853556  0.0001085153 
     56327         769   1718           0.0004081814   0.00015177995  3.8161674      0.0041242412   0.0010026453   0.00012646013
     56358         769   1718           0.0004068004   0.00015231788  3.8177173      0.0040930766   0.00088084157  0.00011503332
     56389         769   1717           0.00040636869  0.00015277437  3.8192672      0.0040946369   0.00081298143  0.0001124196 
     56420         769   1717           0.00040634716  0.00015373161  3.8208171      0.0040961973   0.00079642244  0.00011312052
     56451         769   1717           0.00040679679  0.00015148452  3.822367       0.0040977576   0.00086485168  0.00012387811
     56482         769   1718           0.00040705026  0.00014959714  3.8239169      0.0040993181   0.00088256375  0.00013264943
     56513         769   1717           0.00040695919  0.00015249896  3.8254668      0.0041008785   0.00097744494  0.00012350405
     56544         769   1717           0.00040655746  0.00015246183  3.8270167      0.004102439    0.00095089487  0.0001208546 
     56575         769   1717           0.00040588611  0.00015385272  3.8285666      0.0041039996   0.00091466153  0.00010655748
     56606         769   1717           0.00040584967  0.00015628762  3.8301165      0.0041055601   0.0008202985   0.00010094625
     56637         769   1717           0.00040634005  0.00015338908  3.8316664      0.0041071208   0.00085156727  0.0001238729 
     56668         769   1717           0.00040634309  0.00015160293  3.8332163      0.0041086814   0.00094682007  0.00011978726
     56699         769   1717           0.00040624755  0.00015421361  3.8347662      0.0041102421   0.00089858364  0.00011030391
     56730         769   1718           0.00040656232  0.00015064947  3.8363161      0.0041118028   0.00086703023  0.00013050716
     56761         769   1718           0.0004065323   0.00015568448  3.837866       0.0041133636   0.00096989364  0.00010322322
     56792         769   1719           0.0004068127   0.00015551948  3.8394159      0.0041149244   0.00085316735  0.00010791028
     56823         769   1719           0.0004070486   0.00015101545  3.8409658      0.0041164853   0.00096421563  0.00012296867
     56854         769   1718           0.00040623879  0.00015065356  3.8425157      0.0041180461   0.0010108595   0.00012002191
     56885         769   1717           0.00040606525  0.00015321487  3.8440656      0.0041196071   0.00088920816  0.0001143487 
     56916         769   1717           0.0004058165   0.00014968618  3.8456155      0.004121168    0.00086603715  0.00012087164
     56947         769   1717           0.0004059657   0.00014956064  3.8471654      0.004122729    0.00095966502  0.00012502648
     56978         769   1718           0.00040602961  0.00015230625  3.8487153      0.00412429     0.00082504394  0.00011795716
     57009         769   1715           0.00040423565  0.00015183047  3.8502652      0.0039063173   0.00093127851  0.00010723868
     57040         769   1715           0.00040383321  0.00015280215  3.8518151      0.0038909409   0.0007817985   0.00010865401
     57071         769   1714           0.0004033964   0.00015493407  3.853365       0.0039083653   0.00088761368  0.00010398237
     57102         769   1714           0.00040395411  0.00015169577  3.8549149      0.0038943722   0.0010845917   0.00011082292
     57133         769   1713           0.00040265391  0.00015599945  3.8564648      0.0038151266   0.00085867062  8.8674231e-05
     57164         769   1713           0.00040307931  0.00015339427  3.8580147      0.0038164412   0.00079760207  9.6664125e-05
     57195         769   1713           0.00040275417  0.00015364409  3.8595646      0.0038177558   0.00099528236  9.832496e-05 
     57226         769   1713           0.0004027269   0.00015231047  3.8611145      0.0038190706   0.00080127128  0.00010435297
     57257         769   1712           0.00040275529  0.00014993938  3.8626644      0.0038203854   0.00086502748  0.00011577165
     57288         769   1712           0.00040267476  0.00015131418  3.8642143      0.0038217003   0.0008570269   0.00010884066
     57319         769   1712           0.00040313141  0.00015096737  3.8657642      0.0038230152   0.00084301638  0.00010793743
     57350         769   1712           0.00040281912  0.0001495479   3.8673141      0.0038243303   0.00080008442  0.0001213602 
     57381         769   1712           0.00040298035  0.00015018676  3.868864       0.0038256454   0.00079457931  0.00011478734
     57412         769   1713           0.00040320056  0.0001536091   3.8704139      0.0038269605   0.00082979714  0.00010366527
     57443         769   1712           0.00040254922  0.00014966167  3.8719638      0.0038282758   0.00090691582  0.00011683258
     57474         769   1712           0.00040306553  0.0001503919   3.8735137      0.0038295911   0.00083448296  0.00011144807
     57505         769   1713           0.00040315237  0.00014936612  3.8750636      0.0038309065   0.00091490349  0.00011447864
     57536         769   1713           0.00040336857  0.00014814343  3.8766135      0.003832222    0.00082178045  0.00011938969
     57567         769   1713           0.00040319279  0.0001515548   3.8781634      0.0038335376   0.00078683646  0.00010744785
     57598         769   1712           0.00040324432  0.00015307356  3.8797133      0.0038348532   0.00089140826  0.00010572775
     57629         769   1712           0.00040295025  0.00015127135  3.8812632      0.0038361689   0.00091354554  0.00011175072
     57660         769   1712           0.00040291425  0.0001508877   3.8828131      0.0038374847   0.00091593279  0.00011496879
     57691         769   1712           0.00040335687  0.00015272601  3.884363       0.0038388005   0.00093056893  0.00010583362
     57722         769   1712           0.00040327326  0.00015300746  3.8859129      0.0038401164   0.00079776137  0.00010363476
     57753         769   1713           0.00040322304  0.00014970519  3.8874628      0.0038414324   0.00090923214  0.00010881862
     57784         769   1713           0.00040308854  0.00015355879  3.8890127      0.0038427485   0.00086312287  0.00010888181
     57815         769   1713           0.00040336384  0.00014881323  3.8905626      0.0038440647   0.00088888584  0.00010638701
     57846         769   1713           0.00040354087  0.00014660331  3.8921125      0.0038453809   0.00091709457  0.00012550799
     57877         769   1713           0.00040349057  0.00014831913  3.8936624      0.0038466972   0.00086640681  0.00012164837
     57908         769   1713           0.00040335457  0.00015124381  3.8952123      0.0038480135   0.00091646881  0.00011094488
     57939         769   1713           0.0004036204   0.00015124634  3.8967622      0.00384933     0.00080402219  0.00010364005
     57970         769   1713           0.00040368968  0.00014812765  3.8983121      0.0038506465   0.00089099257  0.00011386895
     58001         769   1713           0.00040351175  0.00015181916  3.899862       0.0038519631   0.00090730381  0.0001062854 
     58032         769   1713           0.00040336385  0.00014968267  3.9014119      0.0038532797   0.00091108277  0.0001090251 
     58063         769   1713           0.00040363634  0.00015044268  3.9029618      0.0038545965   0.00087806812  0.00011321839
     58094         769   1713           0.00040377088  0.00015185693  3.9045117      0.0038559133   0.00087108017  0.00011459295
     58125         769   1713           0.00040382366  0.00015111864  3.9060616      0.0038572302   0.00097279929  0.00011082429
     58156         769   1713           0.00040394045  0.00015028986  3.9076115      0.0038585471   0.00096313557  0.00011720489
     58187         769   1714           0.00040409978  0.00015232675  3.9091614      0.0038598641   0.00088175028  0.00010504705
     58218         769   1714           0.00040399356  0.00014821029  3.9107113      0.0038611812   0.00095820586  0.00012763863
     58249         769   1715           0.00040432517  0.0001487265   3.9122612      0.0038624984   0.0008245938   0.00011885817
     58280         769   1717           0.00040502721  0.00015033042  3.9138111      0.0038638157   0.00093025739  0.00011731998
     58311         769   1716           0.00040459982  0.00015327506  3.915361       0.003865133    0.00087598368  0.00010195521
     58342         769   1715           0.00040427196  0.00015056445  3.9169109      0.0038664504   0.0009107385   0.00010990523
     58373         769   1716           0.00040444322  0.00015343416  3.9184608      0.0038677678   0.00086455151  0.00010579507
     58404         769   1716           0.00040441874  0.00014977746  3.9200107      0.0038690853   0.00090373189  0.00012066624
     58435         769   1716           0.0004043052   0.00015140416  3.9215606      0.003870403    0.00080898108  0.00010806402
     58466         769   1717           0.00040471619  0.00015273172  3.9231105      0.0038717206   0.00090717973  0.00010680453
     58497         769   1717           0.00040486981  0.00014923759  3.9246604      0.0038730384   0.00080726405  0.00010863124
     58528         769   1717           0.00040477457  0.00014994666  3.9262103      0.0038743562   0.00090847043  0.00011245979
     58559         769   1718           0.00040530411  0.00015133029  3.9277602      0.0038756741   0.00083471678  0.00011102817
     58590         769   1718           0.00040471197  0.00015322383  3.9293101      0.0038769921   0.001009561    0.00011253994
     58621         769   1718           0.00040516954  0.00015157679  3.93086        0.0038783101   0.001008245    0.00010789514
     58652         769   1718           0.00040519848  0.00014879348  3.9324099      0.0038796282   0.00083025912  0.00012243092
     58683         769   1716           0.00040443087  0.00014975234  3.9339598      0.0038809464   0.00088771759  0.00011944026
     58714         769   1718           0.00040460648  0.00015184816  3.9355097      0.0038822646   0.000892091    0.00010170846
     58745         769   1718           0.00040491025  0.0001512689   3.9370596      0.003883583    0.00086004062  0.00011116229
     58776         769   1718           0.00040502847  0.0001501086   3.9386095      0.0038849014   0.00092319456  0.00013130588
     58807         769   1718           0.00040471813  0.00015078852  3.9401594      0.0038862198   0.00097234724  0.00010878944
     58838         769   1717           0.0004041457   0.00015002323  3.9417093      0.0038875384   0.0009475669   0.00011493444
     58869         769   1717           0.0004046861   0.00015124506  3.9432592      0.003888857    0.00089227964  0.00011239998
     58900         769   1715           0.0004043294   0.00014610026  3.9448091      0.0038901757   0.00093241809  0.00012641991
     58931         769   1715           0.00040380444  0.00014874956  3.946359       0.0038914944   0.00083400971  0.00012359991
     58962         769   1715           0.00040420786  0.00014867987  3.9479089      0.0038928132   0.00095097681  0.00012029306
     58993         769   1715           0.00040426007  0.00015097289  3.9494588      0.0038941321   0.00091371537  0.00010921695
     59024         769   1715           0.0004040997   0.00015072308  3.9510087      0.0038954511   0.0008260665   0.00010995844
     59055         769   1715           0.00040402587  0.00015159536  3.9525586      0.0038967701   0.00094912633  0.0001095996 
     59086         769   1714           0.00040378748  0.00014866495  3.9541085      0.0038980892   0.00091220388  0.00012225934
     59117         769   1716           0.0004044287   0.00015171835  3.9556584      0.0038994084   0.0011080559   0.00010758885
     59148         769   1716           0.00040419354  0.0001526006   3.9572083      0.0039007277   0.00089239967  0.00010279629
     59179         769   1715           0.0004041895   0.00015194142  3.9587582      0.003902047    0.00095329755  0.00011843544
     59210         769   1717           0.00040455429  0.00015036186  3.9603081      0.0039033664   0.00084684516  0.00011946023
     59241         769   1718           0.00040459476  0.00014961265  3.961858       0.0039046858   0.00091725838  0.00011175433
     59272         769   1718           0.00040449977  0.00014710729  3.9634079      0.0039060053   0.00088380784  0.00013041341
     59303         769   1718           0.00040460278  0.00014964353  3.9649578      0.0039073249   0.00085007429  0.00011710707
     59334         769   1719           0.00040496362  0.00014910068  3.9665077      0.0039086446   0.00081571739  0.00012305573
     59365         769   1719           0.00040511108  0.00015079965  3.9680576      0.0039099644   0.00094919566  0.00011269909
     59396         769   1719           0.00040525962  0.00014968813  3.9696075      0.0039112842   0.0009055053   0.00011654485
     59427         769   1719           0.00040505094  0.0001524257   3.9711574      0.003912604    0.00089380122  0.00010447911
     59458         769   1719           0.00040504714  0.00014845449  3.9727073      0.003913924    0.00084145562  0.00013080462
     59489         769   1720           0.00040530011  0.00015027131  3.9742572      0.003915244    0.0009653255   0.0001201615 
     59520         769   1719           0.00040513846  0.00015267842  3.9758071      0.0039165641   0.00088771471  0.00010566088
     59551         769   1719           0.00040525159  0.00015389744  3.977357       0.0039178843   0.0009949223   0.0001044809 
     59582         769   1719           0.00040543478  0.00015304647  3.9789069      0.0039192045   0.00099487113  0.00010945767
     59613         769   1719           0.00040568492  0.00015448876  3.9804568      0.0039205248   0.00083873821  0.00010258396
     59644         769   1719           0.00040575147  0.00014763783  3.9820067      0.0039218451   0.00095421786  0.00012721086
     59675         769   1719           0.00040544776  0.00014811872  3.9835566      0.0039231656   0.00078300901  0.00011511038
     59706         769   1717           0.0004052571   0.00015353373  3.9851065      0.0039244861   0.00084744181  0.00010925283
     59737         769   1717           0.00040540239  0.00015163842  3.9866564      0.0039258067   0.0009410517   0.00011415889
     59768         769   1717           0.00040564157  0.00014933399  3.9882063      0.0039271273   0.00098223222  0.0001202237 
     59799         769   1716           0.00040516587  0.00015264855  3.9897562      0.003928448    0.00089823449  0.00011429908
     59830         769   1716           0.00040540958  0.00015354268  3.9913061      0.0039297688   0.00096922366  0.00010991322
     59861         769   1715           0.00040467895  0.00015019963  3.992856       0.0039310897   0.00097279798  0.00012068767
     59892         769   1718           0.00040536941  0.0001504841   3.9944059      0.0039324106   0.00086693734  0.00011948949
     59923         769   1718           0.00040556637  0.00015334107  3.9959558      0.0039337316   0.00098901435  0.00011698446
     59954         769   1717           0.00040558386  0.00015190903  3.9975057      0.0039350526   0.00090292675  0.00011737445
     59985         769   1717           0.00040492228  0.0001509095   3.9990556      0.0039363737   0.00094263055  0.00011190307
     60004         769   1717           0.00040547509  0.00015279227  4.0000055      0.0039371835   0.00093401387  0.00011432246
Loop time of 44.327 on 8 procs for 60004 steps with 769 atoms

97.0% CPU use with 8 MPI tasks x 1 OpenMP threads

MPI task timing breakdown:
Section |  min time  |  avg time  |  max time  |%varavg| %total
---------------------------------------------------------------
Pair    | 0.34239    | 0.59804    | 0.85394    |  25.7 |  1.35
Bond    | 0.11754    | 0.22677    | 0.31663    |  15.6 |  0.51
Neigh   | 17.159     | 17.332     | 17.604     |   3.8 | 39.10
Comm    | 3.6924     | 3.9958     | 4.1498     |   8.0 |  9.01
Output  | 0.78554    | 0.9998     | 1.5956     |  24.2 |  2.26
Modify  | 16.234     | 18.394     | 20.715     |  48.3 | 41.50
Other   |            | 2.781      |            |       |  6.27

Nlocal:         96.125 ave         152 max          34 min
Histogram: 1 3 0 0 0 0 0 0 2 2
Nghost:        183.375 ave         347 max          75 min
Histogram: 2 2 0 0 2 0 0 0 0 2
Neighs:        1502.38 ave        2750 max         341 min
Histogram: 1 3 0 0 0 0 0 2 1 1

Total # of neighbors = 12019
Ave neighs/atom = 15.629389
Ave special neighs/atom = 4.4655397
Neighbor list builds = 60004
Dangerous builds = 0


####################################
#### Apply unloading
####################################
# unfix           stretch
# unfix           dynamics
# fix             stretch boundary_atoms deform 1 y erate $(-1*v_erate)
# run             $(ceil(v_Nrun/2))

# unfix           stretch
# fix             dynamics all bond/dynamic 1 1 1 ${ka0} ${kd_bar} ${Lmax} maxbond 6 critical ${Lfc} catch ${f0} ${f0} ${B}
# fix             stretch boundary_atoms deform 1 y erate $(v_erate)
# run             $(ceil(v_Nrun))

# unfix           stretch
# unfix           dynamics
# fix             stretch boundary_atoms deform 1 y erate $(-1*v_erate)
# run             $(ceil(v_Nrun/2))
Total wall time: 0:00:51
